 Gaussian 09, Revision C.01,
 Gaussian 09:  EM64L-G09RevC.01 23-Sep-2011

 -----------------------
 #sp wB97XD/6-311+G(3df)
 -----------------------

 99/4=131072,5=1,9=1/99;
 ---------------------
 Optimizacion del hoso
 ---------------------
 Charge =  0 Multiplicity = 2

                         Standard orientation:
 ---------------------------------------------------------------------
 Center     Atomic      Atomic             Coordinates (Angstroms)
 Number     Number       Type             X           Y           Z
 ---------------------------------------------------------------------
      1         16           0       -0.170533   -0.446004    0.017475
      2          8           0        1.322474    0.216172   -0.045382
      3          8           0       -1.129451    0.535234   -0.023175
      4          1           0        1.184335    1.124823    0.268856
 ---------------------------------------------------------------------

 SCF Done:  E(UwB97XD) =  -549.210093707     A.U. after   15 cycles

 The electronic state is 2-A.
 Alpha  occ. eigenvalues --  -89.13850 -19.31237 -19.28251  -8.16904  -6.11800
 Alpha  occ. eigenvalues --   -6.11585  -6.11224  -1.25282  -1.16480  -0.78385
 Alpha  occ. eigenvalues --   -0.62865  -0.58974  -0.58169  -0.51859  -0.47453
 Alpha  occ. eigenvalues --   -0.43146  -0.29679
 Alpha virt. eigenvalues --    0.05555   0.06931   0.08112   0.09325   0.12065
 Alpha virt. eigenvalues --    0.14337   0.19336   0.22406   0.24624   0.25154
 Alpha virt. eigenvalues --    0.26437   0.27933   0.30591   0.32360   0.32789

  Beta  occ. eigenvalues --  -89.13461 -19.30989 -19.27451  -8.16557  -6.11568
  Beta  occ. eigenvalues --   -6.11013  -6.10338  -1.23877  -1.15524  -0.76010
  Beta  occ. eigenvalues --   -0.61606  -0.58093  -0.54435  -0.50055  -0.44605
  Beta  occ. eigenvalues --   -0.41838
  Beta virt. eigenvalues --   -0.02567   0.05935   0.07390   0.08503   0.10066
  Beta virt. eigenvalues --    0.13151   0.15065   0.19718   0.22606   0.24970
  Beta virt. eigenvalues --    0.25359   0.26816   0.28331   0.30859   0.32603

 Mulliken atomic charges:
              1
     1  S    0.490561
     2  O   -0.636494
     3  O   -0.342734
     4  H    0.488667
 Sum of Mulliken atomic charges =   0.00000

 Dipole moment (field-independent basis, Debye):
    X=              0.7937    Y=              0.2509    Z=              0.5361  Tot=              0.9901
 Quadrupole moment (field-independent basis, Debye-Ang):
   XX=            -26.4079   YY=            -21.3726   ZZ=            -23.4535
   XY=              3.1429   XZ=              0.6562   YZ=              0.8571

 Normal termination of Gaussian 09 at Fri Aug 21 00:31:54 2020.
