 Gaussian 09, Revision C.01,
 Gaussian 09:  EM64L-G09RevC.01 23-Sep-2011

 -----------------------
 #sp wB97XD/6-311+G(3df)
 -----------------------

 99/4=131072,5=1,9=1/99;
 ---------------------
 Optimizacion del hoso
 ---------------------
 Charge =  0 Multiplicity = 2

                         Standard orientation:
 ---------------------------------------------------------------------
 Center     Atomic      Atomic             Coordinates (Angstroms)
 Number     Number       Type             X           Y           Z
 ---------------------------------------------------------------------
      1         16           0       -0.138895   -0.471498    0.020819
      2          8           0        1.309809    0.256742   -0.058985
      3          8           0       -1.188909    0.543608   -0.025069
      4          1           0        1.255129    1.141173    0.339328
 ---------------------------------------------------------------------

 SCF Done:  E(UwB97XD) =  -549.221237459     A.U. after   15 cycles

 The electronic state is 2-A.
 Alpha  occ. eigenvalues --  -89.14860 -19.31834 -19.28341  -8.17609  -6.12539
 Alpha  occ. eigenvalues --   -6.12303  -6.11945  -1.22399  -1.14948  -0.79964
 Alpha  occ. eigenvalues --   -0.63367  -0.57411  -0.56411  -0.50699  -0.46870
 Alpha  occ. eigenvalues --   -0.42488  -0.31039
 Alpha virt. eigenvalues --    0.04903   0.06818   0.07665   0.09348   0.11884
 Alpha virt. eigenvalues --    0.13549   0.18817   0.22306   0.24606   0.25135
 Alpha virt. eigenvalues --    0.26308   0.28284   0.30043   0.32552   0.32869

  Beta  occ. eigenvalues --  -89.14476 -19.31610 -19.27443  -8.17266  -6.12311
  Beta  occ. eigenvalues --   -6.11738  -6.11069  -1.21269  -1.13481  -0.77679
  Beta  occ. eigenvalues --   -0.61978  -0.56502  -0.53310  -0.48282  -0.43499
  Beta  occ. eigenvalues --   -0.41260
  Beta virt. eigenvalues --   -0.03939   0.05355   0.07173   0.08104   0.09944
  Beta virt. eigenvalues --    0.12806   0.14332   0.19136   0.22532   0.24900
  Beta virt. eigenvalues --    0.25380   0.26686   0.28677   0.30442   0.32722

 Mulliken atomic charges:
              1
     1  S    0.501791
     2  O   -0.616070
     3  O   -0.378966
     4  H    0.493246
 Sum of Mulliken atomic charges =   0.00000

 Dipole moment (field-independent basis, Debye):
    X=              1.3355    Y=              0.0564    Z=              0.7037  Tot=              1.5106
 Quadrupole moment (field-independent basis, Debye-Ang):
   XX=            -26.4857   YY=            -21.2704   ZZ=            -23.4487
   XY=              3.3969   XZ=              0.9348   YZ=              1.0768

 Normal termination of Gaussian 09 at Thu Aug 21 00:36:00 2025.
