 Gaussian 09, Revision C.01,
 Gaussian 09:  EM64L-G09RevC.01 23-Sep-2011

 -----------------------
 #sp wB97XD/6-311+G(3df)
 -----------------------

 99/4=131072,5=1,9=1/99;
 ---------------------
 Optimizacion del hoso
 ---------------------
 Charge =  0 Multiplicity = 2

                         Standard orientation:
 ---------------------------------------------------------------------
 Center     Atomic      Atomic             Coordinates (Angstroms)
 Number     Number       Type             X           Y           Z
 ---------------------------------------------------------------------
      1         16           0       -0.216779   -0.499406    0.016730
      2          8           0        1.432842    0.231258   -0.047341
      3          8           0       -1.155657    0.626632   -0.023984
      4          1           0        1.250989    1.127384    0.302914
 ---------------------------------------------------------------------

 SCF Done:  E(UwB97XD) =  -549.209393492     A.U. after   16 cycles

 The electronic state is 2-A.
 Alpha  occ. eigenvalues --  -89.16338 -19.30502 -19.30046  -8.19016  -6.13917
 Alpha  occ. eigenvalues --   -6.13706  -6.13397  -1.20748  -1.12219  -0.79020
 Alpha  occ. eigenvalues --   -0.60820  -0.56565  -0.55822  -0.52155  -0.45016
 Alpha  occ. eigenvalues --   -0.42468  -0.33061
 Alpha virt. eigenvalues --    0.01529   0.06078   0.06876   0.09169   0.09970
 Alpha virt. eigenvalues --    0.13320   0.18873   0.22979   0.24477   0.24591
 Alpha virt. eigenvalues --    0.25817   0.27740   0.30047   0.31832   0.32381

  Beta  occ. eigenvalues --  -89.15951 -19.29878 -19.29553  -8.18674  -6.13686
  Beta  occ. eigenvalues --   -6.13187  -6.12471  -1.18941  -1.11473  -0.75979
  Beta  occ. eigenvalues --   -0.59982  -0.55424  -0.52040  -0.49829  -0.42305
  Beta  occ. eigenvalues --   -0.41487
  Beta virt. eigenvalues --   -0.05838   0.02468   0.06411   0.07355   0.09688
  Beta virt. eigenvalues --    0.10395   0.14068   0.19084   0.23204   0.24676
  Beta virt. eigenvalues --    0.24975   0.26228   0.28125   0.30334   0.32280

 Mulliken atomic charges:
              1
     1  S    0.550733
     2  O   -0.698417
     3  O   -0.334310
     4  H    0.481994
 Sum of Mulliken atomic charges =   0.00000

 Dipole moment (field-independent basis, Debye):
    X=              0.1657    Y=             -0.4267    Z=              0.5968  Tot=              0.7522
 Quadrupole moment (field-independent basis, Debye-Ang):
   XX=            -27.3289   YY=            -21.1545   ZZ=            -23.6631
   XY=              3.1765   XZ=              0.7255   YZ=              0.9418

 Normal termination of Gaussian 09 at Thu Aug 21 00:36:53 2025.
