 Gaussian 09, Revision C.01,
 Gaussian 09:  EM64L-G09RevC.01 23-Sep-2011

 -----------------------
 #sp wB97XD/6-311+G(3df)
 -----------------------

 99/4=131072,5=1,9=1/99;
 ---------------------
 Optimizacion del hoso
 ---------------------
 Charge =  0 Multiplicity = 2

                         Standard orientation:
 ---------------------------------------------------------------------
 Center     Atomic      Atomic             Coordinates (Angstroms)
 Number     Number       Type             X           Y           Z
 ---------------------------------------------------------------------
      1         16           0       -0.132614   -0.473832    0.016640
      2          8           0        1.311466    0.263356   -0.045703
      3          8           0       -1.192423    0.538269   -0.021094
      4          1           0        1.169477    1.168308    0.268143
 ---------------------------------------------------------------------

 SCF Done:  E(UwB97XD) =  -549.221004547     A.U. after   15 cycles

 The electronic state is 2-A.
 Alpha  occ. eigenvalues --  -89.14922 -19.32055 -19.28425  -8.17680  -6.12605
 Alpha  occ. eigenvalues --   -6.12375  -6.12019  -1.22656  -1.14999  -0.79881
 Alpha  occ. eigenvalues --   -0.63369  -0.57613  -0.56644  -0.50675  -0.47247
 Alpha  occ. eigenvalues --   -0.42544  -0.31004
 Alpha virt. eigenvalues --    0.05042   0.06789   0.07560   0.09348   0.11678
 Alpha virt. eigenvalues --    0.13373   0.19061   0.22337   0.24484   0.24870
 Alpha virt. eigenvalues --    0.26324   0.27987   0.30340   0.32421   0.32854

  Beta  occ. eigenvalues --  -89.14536 -19.31810 -19.27539  -8.17335  -6.12376
  Beta  occ. eigenvalues --   -6.11811  -6.11133  -1.21558  -1.13485  -0.77571
  Beta  occ. eigenvalues --   -0.62089  -0.56829  -0.53251  -0.48630  -0.43493
  Beta  occ. eigenvalues --   -0.41318
  Beta virt. eigenvalues --   -0.03934   0.05494   0.07144   0.08017   0.09942
  Beta virt. eigenvalues --    0.12690   0.14034   0.19379   0.22557   0.24801
  Beta virt. eigenvalues --    0.25069   0.26745   0.28400   0.30630   0.32611

 Mulliken atomic charges:
              1
     1  S    0.505182
     2  O   -0.616078
     3  O   -0.384636
     4  H    0.495531
 Sum of Mulliken atomic charges =   0.00000

 Dipole moment (field-independent basis, Debye):
    X=              1.2617    Y=              0.0702    Z=              0.5452  Tot=              1.3762
 Quadrupole moment (field-independent basis, Debye-Ang):
   XX=            -26.8101   YY=            -21.1169   ZZ=            -23.5816
   XY=              3.1857   XZ=              0.6660   YZ=              0.8701

 Normal termination of Gaussian 09 at Wed Aug 20 23:00:01 2025.
