 Gaussian 09, Revision C.01,
 Gaussian 09:  EM64L-G09RevC.01 23-Sep-2011

 ------------------------------------------------------------------
 # wB97XD/6-311+G(3df) opt=verytight freq=anharm integral=ultrafine
 ------------------------------------------------------------------

 99/4=131072,8=1000,9=1/99;
 ---------------------
 Optimizacion del hoso
 ---------------------
 Charge =  0 Multiplicity = 2

 SCF Done:  E(UwB97XD) =  -549.220871515     A.U. after   15 cycles
 SCF Done:  E(UwB97XD) =  -549.221208863     A.U. after   12 cycles
 SCF Done:  E(UwB97XD) =  -549.221250134     A.U. after   11 cycles
 SCF Done:  E(UwB97XD) =  -549.221252099     A.U. after   10 cycles
 SCF Done:  E(UwB97XD) =  -549.221252450     A.U. after   10 cycles
 SCF Done:  E(UwB97XD) =  -549.221252538     A.U. after   10 cycles
 SCF Done:  E(UwB97XD) =  -549.221252797     A.U. after   12 cycles
 SCF Done:  E(UwB97XD) =  -549.221252937     A.U. after   12 cycles
 SCF Done:  E(UwB97XD) =  -549.221252925     A.U. after   10 cycles
 SCF Done:  E(UwB97XD) =  -549.221252920     A.U. after    7 cycles
 Optimization completed.
    -- Stationary point found.
 Normal termination of Gaussian 09 at Tue Feb  4 16:36:33 2025.

 ----------------------------------------------------------------------
 #N Geom=AllCheck Guess=TCheck SCRF=Check GenChk UwB97XD/6-311+G(3df) F
 req
 ----------------------------------------------------------------------

 Structure from the checkpoint file:  opt_freq.chk
 ---------------------
 Optimizacion del hoso
 ---------------------
 Charge =  0 Multiplicity = 2

                         Standard orientation:
 ---------------------------------------------------------------------
 Center     Atomic      Atomic             Coordinates (Angstroms)
 Number     Number       Type             X           Y           Z
 ---------------------------------------------------------------------
      1         16           0       -0.138843   -0.474008    0.016308
      2          8           0        1.310132    0.256471   -0.045040
      3          8           0       -1.185636    0.545438   -0.020037
      4          1           0        1.225521    1.168845    0.259681
 ---------------------------------------------------------------------

 SCF Done:  E(UwB97XD) =  -549.221242665     A.U. after   10 cycles
 SCF Done:  E(UwB97XD) =  -549.221242553     A.U. after   11 cycles
 SCF Done:  E(UwB97XD) =  -549.221244698     A.U. after   11 cycles
 SCF Done:  E(UwB97XD) =  -549.221244620     A.U. after   11 cycles
 SCF Done:  E(UwB97XD) =  -549.221248512     A.U. after   10 cycles
 SCF Done:  E(UwB97XD) =  -549.221248464     A.U. after   10 cycles
 SCF Done:  E(UwB97XD) =  -549.221251758     A.U. after   10 cycles
 SCF Done:  E(UwB97XD) =  -549.221251809     A.U. after   11 cycles
 SCF Done:  E(UwB97XD) =  -549.221252685     A.U. after   11 cycles
 SCF Done:  E(UwB97XD) =  -549.221253034     A.U. after   12 cycles

 Alpha  occ. eigenvalues --  -89.14916 -19.31803 -19.28324  -8.17668  -6.12600
 Alpha  occ. eigenvalues --   -6.12359  -6.12006  -1.22497  -1.14973  -0.80074
 Alpha  occ. eigenvalues --   -0.63305  -0.57404  -0.56585  -0.50544  -0.47185
 Alpha  occ. eigenvalues --   -0.42504  -0.30901
 Alpha virt. eigenvalues --    0.05003   0.06772   0.07609   0.09373   0.11787
 Alpha virt. eigenvalues --    0.13374   0.19056   0.22484   0.24528   0.24994
 Alpha virt. eigenvalues --    0.26427   0.28114   0.30247   0.32484   0.32903

  Beta  occ. eigenvalues --  -89.14530 -19.31558 -19.27440  -8.17324  -6.12372
  Beta  occ. eigenvalues --   -6.11798  -6.11118  -1.21367  -1.13499  -0.77806
  Beta  occ. eigenvalues --   -0.61976  -0.56599  -0.53136  -0.48568  -0.43450
  Beta  occ. eigenvalues --   -0.41297
  Beta virt. eigenvalues --   -0.03837   0.05470   0.07122   0.08061   0.09973
  Beta virt. eigenvalues --    0.12741   0.14101   0.19356   0.22720   0.24859
  Beta virt. eigenvalues --    0.25182   0.26895   0.28498   0.30546   0.32646

 Mulliken atomic charges:
              1
     1  S    0.506757
     2  O   -0.618512
     3  O   -0.382814
     4  H    0.494569
 Sum of Mulliken atomic charges =   0.00000

 Dipole moment (field-independent basis, Debye):
    X=              1.2893    Y=              0.0879    Z=              0.5237  Tot=              1.3944
 Quadrupole moment (field-independent basis, Debye-Ang):
   XX=            -26.6118   YY=            -21.0697   ZZ=            -23.5980
   XY=              3.3939   XZ=              0.6751   YZ=              0.8239

  Exact polarizability:  34.171  -0.898  27.689   0.181   0.125  21.769
 Approx polarizability:  39.519  -3.007  31.248   0.091   0.231  23.695

                     1                      2                      3
                     A                      A                      A
 Frequencies --    93.2359               410.2757               809.9333
 Red. masses --     1.1829                 6.0928                16.1299
 Frc consts  --     0.0061                 0.6043                 6.2342
 IR Inten    --   111.3601                30.5522               200.1909

                     4                      5                      6
                     A                      A                      A
 Frequencies --  1105.7270              1235.3382              3809.8599
 Red. masses --     1.2523                 9.0377                 1.0654
 Frc consts  --     0.9021                 8.1261                 9.1111
 IR Inten    --    21.0487               119.7862               109.1102

 - Thermochemistry -
 -------------------
 Temperature   298.150 Kelvin.  Pressure   1.00000 Atm.
 Atom     1 has atomic number 16 and mass  31.97207

 Molecular mass:    64.96973 amu.
 Principal axes and moments of inertia in atomic units:
                           1         2         3
     Eigenvalues --    51.45213 186.44068 237.14015
           X            0.99925   0.03800   0.00678
           Y           -0.03815   0.99903   0.02212
           Z           -0.00593  -0.02236   0.99973
 This molecule is an asymmetric top.
 Rotational symmetry number  1.
 Rotational temperatures (Kelvin)      1.68339     0.46457     0.36524
 Rotational constants (GHZ):          35.07612     9.67998     7.61044
 Zero-point vibrational energy      44646.8 (Joules/Mol)
                                   10.67085 (Kcal/Mol)
 Warning -- explicit consideration of   2 degrees of freedom as
           vibrations may cause significant error
 Vibrational temperatures:    134.15   590.29  1165.31  1590.89  1777.37
          (Kelvin)           5481.53

 Zero-point correction=                           0.017005 (Hartree/Particle)
 Thermal correction to Energy=                    0.020999
 Thermal correction to Enthalpy=                  0.021943
 Thermal correction to Gibbs Free Energy=        -0.009876
 Sum of electronic and zero-point Energies=           -549.204248
 Sum of electronic and thermal Energies=              -549.200254
 Sum of electronic and thermal Enthalpies=            -549.199309
 Sum of electronic and thermal Free Energies=         -549.231129

                     E (Thermal)             CV                S
                      KCal/Mol        Cal/Mol-Kelvin    Cal/Mol-Kelvin
 Total                   13.177             10.456             66.969
 Electronic               0.000              0.000              1.377
 Translational            0.889              2.981             38.433
 Rotational               0.889              2.981             22.347
 Vibrational             11.400              4.494              4.813
 Vibration     1          0.602              1.954              3.591
 Vibration     2          0.774              1.448              0.926

 Normal termination of Gaussian 09 at Tue Feb  4 16:51:43 2025.
