 Gaussian 09, Revision C.01,
 Gaussian 09:  EM64L-G09RevC.01 23-Sep-2011

 -----------------------
 #sp wB97XD/6-311+G(3df)
 -----------------------

 99/4=131072,5=1,9=1/99;
 ---------------------
 Optimizacion del hoso
 ---------------------
 Charge =  0 Multiplicity = 2

                         Standard orientation:
 ---------------------------------------------------------------------
 Center     Atomic      Atomic             Coordinates (Angstroms)
 Number     Number       Type             X           Y           Z
 ---------------------------------------------------------------------
      1         16           0       -0.114212   -0.472858    0.017541
      2          8           0        1.315428    0.283619   -0.047398
      3          8           0       -1.212289    0.516894   -0.024389
      4          1           0        1.002277    1.161622    0.293644
 ---------------------------------------------------------------------

 SCF Done:  E(UwB97XD) =  -549.216491971     A.U. after   15 cycles

 The electronic state is 2-A.
 Alpha  occ. eigenvalues --  -89.15043 -19.32865 -19.28729  -8.17810  -6.12717
 Alpha  occ. eigenvalues --   -6.12508  -6.12160  -1.23047  -1.14868  -0.79111
 Alpha  occ. eigenvalues --   -0.63556  -0.58189  -0.56826  -0.50799  -0.47423
 Alpha  occ. eigenvalues --   -0.42672  -0.31264
 Alpha virt. eigenvalues --    0.04995   0.06856   0.07397   0.09269   0.11153
 Alpha virt. eigenvalues --    0.13394   0.18549   0.22090   0.24166   0.24681
 Alpha virt. eigenvalues --    0.26074   0.27583   0.30654   0.32294   0.32718

  Beta  occ. eigenvalues --  -89.14654 -19.32610 -19.27843  -8.17463  -6.12486
  Beta  occ. eigenvalues --   -6.11951  -6.11258  -1.22003  -1.13270  -0.76648
  Beta  occ. eigenvalues --   -0.62486  -0.57402  -0.53519  -0.48685  -0.43556
  Beta  occ. eigenvalues --   -0.41411
  Beta virt. eigenvalues --   -0.04201   0.05420   0.07223   0.07878   0.09853
  Beta virt. eigenvalues --    0.12238   0.13928   0.18952   0.22239   0.24403
  Beta virt. eigenvalues --    0.24952   0.26408   0.28071   0.30899   0.32539

 Mulliken atomic charges:
              1
     1  S    0.500743
     2  O   -0.607060
     3  O   -0.391508
     4  H    0.497825
 Sum of Mulliken atomic charges =   0.00000

 Dipole moment (field-independent basis, Debye):
    X=              1.1755    Y=              0.0147    Z=              0.5586  Tot=              1.3015
 Quadrupole moment (field-independent basis, Debye-Ang):
   XX=            -27.3303   YY=            -21.2665   ZZ=            -23.5864
   XY=              2.5743   XZ=              0.5547   YZ=              0.9242

 Normal termination of Gaussian 09 at Wed Aug 20 22:59:59 2025.
