 Gaussian 09, Revision C.01,
 Gaussian 09:  EM64L-G09RevC.01 23-Sep-2011

 -----------------------
 #sp wB97XD/6-311+G(3df)
 -----------------------

 99/4=131072,5=1,9=1/99;
 ---------------------
 Optimizacion del hoso
 ---------------------
 Charge =  0 Multiplicity = 2

                         Standard orientation:
 ---------------------------------------------------------------------
 Center     Atomic      Atomic             Coordinates (Angstroms)
 Number     Number       Type             X           Y           Z
 ---------------------------------------------------------------------
      1         16           0       -0.139881   -0.482785    0.017129
      2          8           0        1.297310    0.262905   -0.048119
      3          8           0       -1.166779    0.557060   -0.021465
      4          1           0        1.193852    1.164848    0.282595
 ---------------------------------------------------------------------

 SCF Done:  E(UwB97XD) =  -549.221095149     A.U. after   15 cycles

 The electronic state is 2-A.
 Alpha  occ. eigenvalues --  -89.14949 -19.31729 -19.28231  -8.17708  -6.12639
 Alpha  occ. eigenvalues --   -6.12402  -6.12043  -1.22660  -1.14822  -0.80026
 Alpha  occ. eigenvalues --   -0.63307  -0.57509  -0.56612  -0.50595  -0.47014
 Alpha  occ. eigenvalues --   -0.42430  -0.31004
 Alpha virt. eigenvalues --    0.04945   0.06690   0.07548   0.09352   0.11959
 Alpha virt. eigenvalues --    0.13399   0.19121   0.22475   0.24602   0.24998
 Alpha virt. eigenvalues --    0.26337   0.28095   0.30181   0.32509   0.32948

  Beta  occ. eigenvalues --  -89.14565 -19.31493 -19.27346  -8.17364  -6.12411
  Beta  occ. eigenvalues --   -6.11834  -6.11167  -1.21546  -1.13348  -0.77743
  Beta  occ. eigenvalues --   -0.61964  -0.56690  -0.53272  -0.48501  -0.43361
  Beta  occ. eigenvalues --   -0.41250
  Beta virt. eigenvalues --   -0.03938   0.05427   0.07034   0.07997   0.09963
  Beta virt. eigenvalues --    0.12772   0.14276   0.19452   0.22710   0.24925
  Beta virt. eigenvalues --    0.25193   0.26756   0.28499   0.30490   0.32686

 Mulliken atomic charges:
              1
     1  S    0.506959
     2  O   -0.616835
     3  O   -0.385151
     4  H    0.495027
 Sum of Mulliken atomic charges =   0.00000

 Dipole moment (field-independent basis, Debye):
    X=              1.2450    Y=             -0.0012    Z=              0.5810  Tot=              1.3739
 Quadrupole moment (field-independent basis, Debye-Ang):
   XX=            -26.6342   YY=            -21.1136   ZZ=            -23.5389
   XY=              3.3089   XZ=              0.7344   YZ=              0.9154

 Normal termination of Gaussian 09 at Thu Aug 21 01:11:05 2025.
