 Gaussian 09, Revision C.01,
 Gaussian 09:  EM64L-G09RevC.01 23-Sep-2011

 -----------------------
 #sp wB97XD/6-311+G(3df)
 -----------------------

 99/4=131072,5=1,9=1/99;
 ---------------------
 Optimizacion del hoso
 ---------------------
 Charge =  0 Multiplicity = 2

                         Standard orientation:
 ---------------------------------------------------------------------
 Center     Atomic      Atomic             Coordinates (Angstroms)
 Number     Number       Type             X           Y           Z
 ---------------------------------------------------------------------
      1         16           0       -0.138677   -0.477735    0.009177
      2          8           0        1.310467    0.256013   -0.024394
      3          8           0       -1.180843    0.547955   -0.011587
      4          1           0        1.181836    1.212020    0.141006
 ---------------------------------------------------------------------

 SCF Done:  E(UwB97XD) =  -549.221108064     A.U. after   15 cycles

 The electronic state is 2-A.
 Alpha  occ. eigenvalues --  -89.14924 -19.31914 -19.28295  -8.17680  -6.12611
 Alpha  occ. eigenvalues --   -6.12374  -6.12018  -1.22422  -1.14804  -0.79876
 Alpha  occ. eigenvalues --   -0.63061  -0.57369  -0.56741  -0.50362  -0.47424
 Alpha  occ. eigenvalues --   -0.42491  -0.30764
 Alpha virt. eigenvalues --    0.04986   0.06750   0.07562   0.09399   0.11608
 Alpha virt. eigenvalues --    0.13132   0.19063   0.22602   0.24466   0.24829
 Alpha virt. eigenvalues --    0.26614   0.27817   0.30386   0.32443   0.32955

  Beta  occ. eigenvalues --  -89.14537 -19.31648 -19.27426  -8.17335  -6.12382
  Beta  occ. eigenvalues --   -6.11808  -6.11129  -1.21268  -1.13347  -0.77587
  Beta  occ. eigenvalues --   -0.61828  -0.56676  -0.52924  -0.48818  -0.43355
  Beta  occ. eigenvalues --   -0.41301
  Beta virt. eigenvalues --   -0.03734   0.05454   0.07092   0.08024   0.10002
  Beta virt. eigenvalues --    0.12644   0.13734   0.19384   0.22825   0.24816
  Beta virt. eigenvalues --    0.24992   0.27212   0.28149   0.30592   0.32585

 Mulliken atomic charges:
              1
     1  S    0.509213
     2  O   -0.616802
     3  O   -0.386201
     4  H    0.493790
 Sum of Mulliken atomic charges =   0.00000

 Dipole moment (field-independent basis, Debye):
    X=              1.2402    Y=              0.1251    Z=              0.2916  Tot=              1.2801
 Quadrupole moment (field-independent basis, Debye-Ang):
   XX=            -26.7715   YY=            -20.8517   ZZ=            -23.7455
   XY=              3.3724   XZ=              0.3598   YZ=              0.4749

 Normal termination of Gaussian 09 at Thu Aug 21 00:03:37 2025.
