 Gaussian 09, Revision C.01,
 Gaussian 09:  EM64L-G09RevC.01 23-Sep-2011

 -----------------------
 #sp wB97XD/6-311+G(3df)
 -----------------------

 99/4=131072,5=1,9=1/99;
 ---------------------
 Optimizacion del hoso
 ---------------------
 Charge =  0 Multiplicity = 2

                         Standard orientation:
 ---------------------------------------------------------------------
 Center     Atomic      Atomic             Coordinates (Angstroms)
 Number     Number       Type             X           Y           Z
 ---------------------------------------------------------------------
      1         16           0       -0.139759   -0.474961    0.019628
      2          8           0        1.310909    0.245528   -0.050150
      3          8           0       -1.184130    0.546679   -0.024071
      4          1           0        1.221915    1.261715    0.279728
 ---------------------------------------------------------------------

 SCF Done:  E(UwB97XD) =  -549.212993822     A.U. after   15 cycles

 The electronic state is 2-A.
 Alpha  occ. eigenvalues --  -89.14708 -19.32446 -19.28135  -8.17459  -6.12385
 Alpha  occ. eigenvalues --   -6.12157  -6.11798  -1.21605  -1.13919  -0.78709
 Alpha  occ. eigenvalues --   -0.62258  -0.57165  -0.56342  -0.50148  -0.46841
 Alpha  occ. eigenvalues --   -0.42292  -0.30669
 Alpha virt. eigenvalues --    0.04081   0.06915   0.07719   0.09378   0.11191
 Alpha virt. eigenvalues --    0.12865   0.17747   0.22229   0.24523   0.25128
 Alpha virt. eigenvalues --    0.26514   0.28110   0.30225   0.32501   0.33011

  Beta  occ. eigenvalues --  -89.14322 -19.32194 -19.27260  -8.17115  -6.12157
  Beta  occ. eigenvalues --   -6.11589  -6.10918  -1.20343  -1.12560  -0.76301
  Beta  occ. eigenvalues --   -0.61034  -0.56342  -0.52896  -0.48176  -0.43152
  Beta  occ. eigenvalues --   -0.41098
  Beta virt. eigenvalues --   -0.03676   0.04469   0.07258   0.08149   0.09984
  Beta virt. eigenvalues --    0.12376   0.13256   0.18312   0.22414   0.24859
  Beta virt. eigenvalues --    0.25300   0.27005   0.28492   0.30531   0.32643

 Mulliken atomic charges:
              1
     1  S    0.497302
     2  O   -0.587304
     3  O   -0.387733
     4  H    0.477735
 Sum of Mulliken atomic charges =   0.00000

 Dipole moment (field-independent basis, Debye):
    X=              1.3462    Y=              0.2349    Z=              0.5779  Tot=              1.4837
 Quadrupole moment (field-independent basis, Debye-Ang):
   XX=            -26.6823   YY=            -20.7843   ZZ=            -23.6834
   XY=              3.5951   XZ=              0.7206   YZ=              0.9411

 Normal termination of Gaussian 09 at Thu Aug 21 00:36:51 2025.
