 Gaussian 09, Revision C.01,
 Gaussian 09:  EM64L-G09RevC.01 23-Sep-2011

 -----------------------
 #sp wB97XD/6-311+G(3df)
 -----------------------

 99/4=131072,5=1,9=1/99;
 ---------------------
 Optimizacion del hoso
 ---------------------
 Charge =  0 Multiplicity = 2

                         Standard orientation:
 ---------------------------------------------------------------------
 Center     Atomic      Atomic             Coordinates (Angstroms)
 Number     Number       Type             X           Y           Z
 ---------------------------------------------------------------------
      1         16           0       -0.141102   -0.491523    0.017885
      2          8           0        1.284603    0.269037   -0.051097
      3          8           0       -1.147711    0.568931   -0.022885
      4          1           0        1.162501    1.160614    0.305691
 ---------------------------------------------------------------------

 SCF Done:  E(UwB97XD) =  -549.220542042     A.U. after   15 cycles

 The electronic state is 2-A.
 Alpha  occ. eigenvalues --  -89.15001 -19.31654 -19.28140  -8.17767  -6.12698
 Alpha  occ. eigenvalues --   -6.12462  -6.12101  -1.22801  -1.14627  -0.79963
 Alpha  occ. eigenvalues --   -0.63284  -0.57601  -0.56641  -0.50622  -0.46859
 Alpha  occ. eigenvalues --   -0.42331  -0.31108
 Alpha virt. eigenvalues --    0.04837   0.06613   0.07477   0.09333   0.12031
 Alpha virt. eigenvalues --    0.13476   0.19181   0.22475   0.24673   0.24995
 Alpha virt. eigenvalues --    0.26252   0.28068   0.30131   0.32531   0.32992

  Beta  occ. eigenvalues --  -89.14618 -19.31427 -19.27254  -8.17424  -6.12470
  Beta  occ. eigenvalues --   -6.11893  -6.11231  -1.21701  -1.13153  -0.77661
  Beta  occ. eigenvalues --   -0.61934  -0.56778  -0.53379  -0.48449  -0.43257
  Beta  occ. eigenvalues --   -0.41182
  Beta virt. eigenvalues --   -0.04045   0.05344   0.06948   0.07927   0.09955
  Beta virt. eigenvalues --    0.12717   0.14478   0.19548   0.22702   0.24994
  Beta virt. eigenvalues --    0.25193   0.26636   0.28487   0.30443   0.32720

 Mulliken atomic charges:
              1
     1  S    0.508046
     2  O   -0.615237
     3  O   -0.388293
     4  H    0.495484
 Sum of Mulliken atomic charges =   0.00000

 Dipole moment (field-independent basis, Debye):
    X=              1.1957    Y=             -0.0891    Z=              0.6220  Tot=              1.3507
 Quadrupole moment (field-independent basis, Debye-Ang):
   XX=            -26.6665   YY=            -21.1435   ZZ=            -23.4923
   XY=              3.2255   XZ=              0.7675   YZ=              0.9812

 Normal termination of Gaussian 09 at Thu Aug 21 01:11:04 2025.
