 Gaussian 09, Revision C.01,
 Gaussian 09:  EM64L-G09RevC.01 23-Sep-2011

 -----------------------
 #sp wB97XD/6-311+G(3df)
 -----------------------

 99/4=131072,5=1,9=1/99;
 ---------------------
 Optimizacion del hoso
 ---------------------
 Charge =  0 Multiplicity = 2

                         Standard orientation:
 ---------------------------------------------------------------------
 Center     Atomic      Atomic             Coordinates (Angstroms)
 Number     Number       Type             X           Y           Z
 ---------------------------------------------------------------------
      1         16           0       -0.164546   -0.483246    0.016470
      2          8           0        1.350908    0.249212   -0.045882
      3          8           0       -1.176115    0.572950   -0.021335
      4          1           0        1.234389    1.154642    0.274209
 ---------------------------------------------------------------------

 SCF Done:  E(UwB97XD) =  -549.219672694     A.U. after   16 cycles

 The electronic state is 2-A.
 Alpha  occ. eigenvalues --  -89.15430 -19.31146 -19.29080  -8.18142  -6.13064
 Alpha  occ. eigenvalues --   -6.12835  -6.12495  -1.21415  -1.14427  -0.79479
 Alpha  occ. eigenvalues --   -0.62650  -0.56929  -0.56133  -0.51151  -0.46582
 Alpha  occ. eigenvalues --   -0.42601  -0.31689
 Alpha virt. eigenvalues --    0.04221   0.06466   0.07357   0.09327   0.10905
 Alpha virt. eigenvalues --    0.13400   0.19026   0.22645   0.24573   0.24858
 Alpha virt. eigenvalues --    0.26192   0.27991   0.30174   0.32299   0.32675

  Beta  occ. eigenvalues --  -89.15044 -19.30926 -19.28173  -8.17800  -6.12837
  Beta  occ. eigenvalues --   -6.12286  -6.11598  -1.20056  -1.13190  -0.76918
  Beta  occ. eigenvalues --   -0.61525  -0.56063  -0.52463  -0.49086  -0.43211
  Beta  occ. eigenvalues --   -0.41459
  Beta virt. eigenvalues --   -0.04563   0.04896   0.06768   0.07839   0.09917
  Beta virt. eigenvalues --    0.11629   0.14149   0.19286   0.22873   0.24895
  Beta virt. eigenvalues --    0.25066   0.26631   0.28377   0.30477   0.32518

 Mulliken atomic charges:
              1
     1  S    0.524989
     2  O   -0.650025
     3  O   -0.365508
     4  H    0.490544
 Sum of Mulliken atomic charges =   0.00000

 Dipole moment (field-independent basis, Debye):
    X=              0.9022    Y=             -0.1079    Z=              0.5613  Tot=              1.0681
 Quadrupole moment (field-independent basis, Debye-Ang):
   XX=            -26.8477   YY=            -21.1047   ZZ=            -23.6090
   XY=              3.3100   XZ=              0.7100   YZ=              0.8807

 Normal termination of Gaussian 09 at Thu Aug 21 00:40:01 2025.
