 Gaussian 09, Revision C.01,
 Gaussian 09:  EM64L-G09RevC.01 23-Sep-2011

 -----------------------
 #sp wB97XD/6-311+G(3df)
 -----------------------

 99/4=131072,5=1,9=1/99;
 ---------------------
 Optimizacion del hoso
 ---------------------
 Charge =  0 Multiplicity = 2

                         Standard orientation:
 ---------------------------------------------------------------------
 Center     Atomic      Atomic             Coordinates (Angstroms)
 Number     Number       Type             X           Y           Z
 ---------------------------------------------------------------------
      1         16           0       -0.136589   -0.447492    0.013431
      2          8           0        1.349142    0.235739   -0.035227
      3          8           0       -1.241223    0.511787   -0.015658
      4          1           0        1.322075    1.179669    0.192180
 ---------------------------------------------------------------------

 SCF Done:  E(UwB97XD) =  -549.219799956     A.U. after   15 cycles

 The electronic state is 2-A.
 Alpha  occ. eigenvalues --  -89.14805 -19.32019 -19.28628  -8.17528  -6.12458
 Alpha  occ. eigenvalues --   -6.12216  -6.11870  -1.21875  -1.15228  -0.80113
 Alpha  occ. eigenvalues --   -0.63269  -0.57016  -0.56377  -0.50396  -0.47544
 Alpha  occ. eigenvalues --   -0.42592  -0.30727
 Alpha virt. eigenvalues --    0.04863   0.07060   0.07756   0.09431   0.10957
 Alpha virt. eigenvalues --    0.13644   0.18775   0.22401   0.24389   0.25027
 Alpha virt. eigenvalues --    0.26589   0.28286   0.30385   0.32444   0.32749

  Beta  occ. eigenvalues --  -89.14416 -19.31754 -19.27742  -8.17181  -6.12228
  Beta  occ. eigenvalues --   -6.11662  -6.10966  -1.20687  -1.13763  -0.77858
  Beta  occ. eigenvalues --   -0.61970  -0.56233  -0.52717  -0.48660  -0.43640
  Beta  occ. eigenvalues --   -0.41305
  Beta virt. eigenvalues --   -0.03654   0.05335   0.07402   0.08236   0.09990
  Beta virt. eigenvalues --    0.12027   0.14138   0.19023   0.22613   0.24728
  Beta virt. eigenvalues --    0.25206   0.27209   0.28600   0.30693   0.32570

 Mulliken atomic charges:
              1
     1  S    0.498875
     2  O   -0.619440
     3  O   -0.371584
     4  H    0.492149
 Sum of Mulliken atomic charges =   0.00000

 Dipole moment (field-independent basis, Debye):
    X=              1.4307    Y=              0.3284    Z=              0.4098  Tot=              1.5240
 Quadrupole moment (field-independent basis, Debye-Ang):
   XX=            -26.4972   YY=            -21.0145   ZZ=            -23.7209
   XY=              3.6532   XZ=              0.5656   YZ=              0.6375

 Normal termination of Gaussian 09 at Thu Aug 21 01:11:04 2025.
