 Gaussian 09, Revision C.01,
 Gaussian 09:  EM64L-G09RevC.01 23-Sep-2011

 -----------------------
 #sp wB97XD/6-311+G(3df)
 -----------------------

 99/4=131072,5=1,9=1/99;
 ---------------------
 Optimizacion del hoso
 ---------------------
 Charge =  0 Multiplicity = 2

                         Standard orientation:
 ---------------------------------------------------------------------
 Center     Atomic      Atomic             Coordinates (Angstroms)
 Number     Number       Type             X           Y           Z
 ---------------------------------------------------------------------
      1         16           0       -0.136063   -0.438607    0.012327
      2          8           0        1.362287    0.228444   -0.031771
      3          8           0       -1.259496    0.500899   -0.014151
      4          1           0        1.354685    1.182958    0.170148
 ---------------------------------------------------------------------

 SCF Done:  E(UwB97XD) =  -549.218656430     A.U. after   15 cycles

 The electronic state is 2-A.
 Alpha  occ. eigenvalues --  -89.14788 -19.32091 -19.28736  -8.17498  -6.12428
 Alpha  occ. eigenvalues --   -6.12185  -6.11844  -1.21627  -1.15239  -0.80089
 Alpha  occ. eigenvalues --   -0.63230  -0.56865  -0.56292  -0.50327  -0.47644
 Alpha  occ. eigenvalues --   -0.42586  -0.30695
 Alpha virt. eigenvalues --    0.04720   0.07149   0.07760   0.09452   0.10635
 Alpha virt. eigenvalues --    0.13758   0.18689   0.22355   0.24361   0.25033
 Alpha virt. eigenvalues --    0.26628   0.28354   0.30415   0.32447   0.32696

  Beta  occ. eigenvalues --  -89.14398 -19.31819 -19.27850  -8.17151  -6.12197
  Beta  occ. eigenvalues --   -6.11636  -6.10931  -1.20415  -1.13779  -0.77828
  Beta  occ. eigenvalues --   -0.61947  -0.56096  -0.52552  -0.48685  -0.43669
  Beta  occ. eigenvalues --   -0.41278
  Beta virt. eigenvalues --   -0.03621   0.05217   0.07482   0.08268   0.09995
  Beta virt. eigenvalues --    0.11647   0.14225   0.18933   0.22553   0.24702
  Beta virt. eigenvalues --    0.25210   0.27307   0.28641   0.30730   0.32561

 Mulliken atomic charges:
              1
     1  S    0.495102
     2  O   -0.618401
     3  O   -0.367615
     4  H    0.490914
 Sum of Mulliken atomic charges =   0.00000

 Dipole moment (field-independent basis, Debye):
    X=              1.4741    Y=              0.4041    Z=              0.3655  Tot=              1.5716
 Quadrupole moment (field-independent basis, Debye-Ang):
   XX=            -26.4612   YY=            -20.9953   ZZ=            -23.7653
   XY=              3.7396   XZ=              0.5148   YZ=              0.5659

 Normal termination of Gaussian 09 at Thu Aug 21 00:36:52 2025.
