 Gaussian 09, Revision C.01,
 Gaussian 09:  EM64L-G09RevC.01 23-Sep-2011

 -----------------------
 #sp wB97XD/6-311+G(3df)
 -----------------------

 99/4=131072,5=1,9=1/99;
 ---------------------
 Optimizacion del hoso
 ---------------------
 Charge =  0 Multiplicity = 2

                         Standard orientation:
 ---------------------------------------------------------------------
 Center     Atomic      Atomic             Coordinates (Angstroms)
 Number     Number       Type             X           Y           Z
 ---------------------------------------------------------------------
      1         16           0       -0.113516   -0.463974    0.016120
      2          8           0        1.269568    0.262392   -0.044113
      3          8           0       -1.194587    0.517649   -0.018757
      4          1           0        1.216409    1.183257    0.245039
 ---------------------------------------------------------------------

 SCF Done:  E(UwB97XD) =  -549.219233311     A.U. after   15 cycles

 The electronic state is 2-A.
 Alpha  occ. eigenvalues --  -89.14319 -19.32516 -19.27544  -8.17132  -6.12075
 Alpha  occ. eigenvalues --   -6.11822  -6.11448  -1.24179  -1.15091  -0.80935
 Alpha  occ. eigenvalues --   -0.63759  -0.58084  -0.57337  -0.49936  -0.47480
 Alpha  occ. eigenvalues --   -0.42285  -0.30070
 Alpha virt. eigenvalues --    0.05278   0.07196   0.07862   0.09392   0.12852
 Alpha virt. eigenvalues --    0.13454   0.19051   0.22309   0.24433   0.25162
 Alpha virt. eigenvalues --    0.26658   0.28269   0.30304   0.32653   0.33164

  Beta  occ. eigenvalues --  -89.13934 -19.32252 -19.26683  -8.16786  -6.11845
  Beta  occ. eigenvalues --   -6.11240  -6.10582  -1.23195  -1.13476  -0.78962
  Beta  occ. eigenvalues --   -0.62221  -0.57269  -0.54199  -0.47924  -0.43516
  Beta  occ. eigenvalues --   -0.41017
  Beta virt. eigenvalues --   -0.03069   0.05611   0.07563   0.08276   0.10001
  Beta virt. eigenvalues --    0.13932   0.14203   0.19408   0.22555   0.24749
  Beta virt. eigenvalues --    0.25368   0.27143   0.28658   0.30609   0.32798

 Mulliken atomic charges:
              1
     1  S    0.482627
     2  O   -0.582378
     3  O   -0.398710
     4  H    0.498461
 Sum of Mulliken atomic charges =   0.00000

 Dipole moment (field-independent basis, Debye):
    X=              1.6977    Y=              0.2996    Z=              0.5134  Tot=              1.7988
 Quadrupole moment (field-independent basis, Debye-Ang):
   XX=            -26.3511   YY=            -21.0699   ZZ=            -23.5650
   XY=              3.4878   XZ=              0.6811   YZ=              0.8140

 Normal termination of Gaussian 09 at Thu Aug 21 00:39:59 2025.
