 Gaussian 09, Revision C.01,
 Gaussian 09:  EM64L-G09RevC.01 23-Sep-2011

 -----------------------
 #sp wB97XD/6-311+G(3df)
 -----------------------

 99/4=131072,5=1,9=1/99;
 ---------------------
 Optimizacion del hoso
 ---------------------
 Charge =  0 Multiplicity = 2

                         Standard orientation:
 ---------------------------------------------------------------------
 Center     Atomic      Atomic             Coordinates (Angstroms)
 Number     Number       Type             X           Y           Z
 ---------------------------------------------------------------------
      1         16           0       -0.122070   -0.487570    0.015767
      2          8           0        1.303284    0.277481   -0.044790
      3          8           0       -1.214707    0.548515   -0.018594
      4          1           0        1.244506    1.193160    0.254798
 ---------------------------------------------------------------------

 SCF Done:  E(UwB97XD) =  -549.219109160     A.U. after   15 cycles

 The electronic state is 2-A.
 Alpha  occ. eigenvalues --  -89.15314 -19.32057 -19.28384  -8.17971  -6.12918
 Alpha  occ. eigenvalues --   -6.12651  -6.12320  -1.21832  -1.13651  -0.80845
 Alpha  occ. eigenvalues --   -0.63555  -0.56854  -0.56051  -0.49902  -0.46889
 Alpha  occ. eigenvalues --   -0.42080  -0.31475
 Alpha virt. eigenvalues --    0.04623   0.06650   0.07356   0.09393   0.11684
 Alpha virt. eigenvalues --    0.12937   0.18774   0.22531   0.24484   0.24933
 Alpha virt. eigenvalues --    0.26390   0.28230   0.30024   0.32549   0.32967

  Beta  occ. eigenvalues --  -89.14933 -19.31817 -19.27453  -8.17631  -6.12694
  Beta  occ. eigenvalues --   -6.12116  -6.11425  -1.20854  -1.11890  -0.78626
  Beta  occ. eigenvalues --   -0.62184  -0.56065  -0.52829  -0.47901  -0.42647
  Beta  occ. eigenvalues --   -0.40877
  Beta virt. eigenvalues --   -0.04432   0.05124   0.06984   0.07829   0.09929
  Beta virt. eigenvalues --    0.12586   0.13621   0.19041   0.22775   0.24800
  Beta virt. eigenvalues --    0.25122   0.26922   0.28601   0.30348   0.32681

 Mulliken atomic charges:
              1
     1  S    0.510435
     2  O   -0.608461
     3  O   -0.398819
     4  H    0.496845
 Sum of Mulliken atomic charges =   0.00000

 Dipole moment (field-independent basis, Debye):
    X=              1.5256    Y=              0.0279    Z=              0.5378  Tot=              1.6179
 Quadrupole moment (field-independent basis, Debye-Ang):
   XX=            -26.6851   YY=            -20.9265   ZZ=            -23.6625
   XY=              3.4967   XZ=              0.7159   YZ=              0.8428

 Normal termination of Gaussian 09 at Fri Aug 21 00:31:55 2020.
