 Gaussian 09, Revision C.01,
 Gaussian 09:  EM64L-G09RevC.01 23-Sep-2011

 -----------------------
 #sp wB97XD/6-311+G(3df)
 -----------------------

 99/4=131072,5=1,9=1/99;
 ---------------------
 Optimizacion del hoso
 ---------------------
 Charge =  0 Multiplicity = 2

                         Standard orientation:
 ---------------------------------------------------------------------
 Center     Atomic      Atomic             Coordinates (Angstroms)
 Number     Number       Type             X           Y           Z
 ---------------------------------------------------------------------
      1         16           0       -0.140219   -0.475425    0.021356
      2          8           0        1.311280    0.240028   -0.052673
      3          8           0       -1.183378    0.547280   -0.026169
      4          1           0        1.220288    1.308342    0.289046
 ---------------------------------------------------------------------

 SCF Done:  E(UwB97XD) =  -549.204650159     A.U. after   15 cycles

 The electronic state is 2-A.
 Alpha  occ. eigenvalues --  -89.14623 -19.32681 -19.28054  -8.17374  -6.12297
 Alpha  occ. eigenvalues --   -6.12074  -6.11714  -1.21293  -1.13468  -0.78122
 Alpha  occ. eigenvalues --   -0.61711  -0.57050  -0.56235  -0.49931  -0.46692
 Alpha  occ. eigenvalues --   -0.42198  -0.30558
 Alpha virt. eigenvalues --    0.03305   0.06977   0.07767   0.09361   0.10626
 Alpha virt. eigenvalues --    0.12787   0.17309   0.22156   0.24519   0.25181
 Alpha virt. eigenvalues --    0.26560   0.28121   0.30255   0.32512   0.33066

  Beta  occ. eigenvalues --  -89.14237 -19.32425 -19.27185  -8.17029  -6.12068
  Beta  occ. eigenvalues --   -6.11505  -6.10836  -1.19985  -1.12150  -0.75649
  Beta  occ. eigenvalues --   -0.60532  -0.56221  -0.52779  -0.47984  -0.43013
  Beta  occ. eigenvalues --   -0.41011
  Beta virt. eigenvalues --   -0.03612   0.03667   0.07318   0.08183   0.09980
  Beta virt. eigenvalues --    0.11711   0.13231   0.17988   0.22323   0.24858
  Beta virt. eigenvalues --    0.25347   0.27071   0.28493   0.30557   0.32646

 Mulliken atomic charges:
              1
     1  S    0.491917
     2  O   -0.569178
     3  O   -0.390230
     4  H    0.467491
 Sum of Mulliken atomic charges =   0.00000

 Dipole moment (field-independent basis, Debye):
    X=              1.3664    Y=              0.3070    Z=              0.5957  Tot=              1.5219
 Quadrupole moment (field-independent basis, Debye-Ang):
   XX=            -26.7228   YY=            -20.6206   ZZ=            -23.7268
   XY=              3.6908   XZ=              0.7306   YZ=              0.9869

 Normal termination of Gaussian 09 at Thu Aug 21 00:36:54 2025.
