 Gaussian 09, Revision C.01,
 Gaussian 09:  EM64L-G09RevC.01 23-Sep-2011

 -----------------------
 #sp wB97XD/6-311+G(3df)
 -----------------------

 99/4=131072,5=1,9=1/99;
 ---------------------
 Optimizacion del hoso
 ---------------------
 Charge =  0 Multiplicity = 2

                         Standard orientation:
 ---------------------------------------------------------------------
 Center     Atomic      Atomic             Coordinates (Angstroms)
 Number     Number       Type             X           Y           Z
 ---------------------------------------------------------------------
      1         16           0       -0.138904   -0.470238    0.023003
      2          8           0        1.309614    0.256871   -0.066013
      3          8           0       -1.190569    0.542650   -0.027404
      4          1           0        1.270099    1.127634    0.379285
 ---------------------------------------------------------------------

 SCF Done:  E(UwB97XD) =  -549.221093952     A.U. after   15 cycles

 The electronic state is 2-A.
 Alpha  occ. eigenvalues --  -89.14831 -19.31882 -19.28348  -8.17578  -6.12507
 Alpha  occ. eigenvalues --   -6.12273  -6.11915  -1.22311  -1.14888  -0.79838
 Alpha  occ. eigenvalues --   -0.63354  -0.57406  -0.56323  -0.50765  -0.46699
 Alpha  occ. eigenvalues --   -0.42474  -0.31105
 Alpha virt. eigenvalues --    0.04819   0.06844   0.07693   0.09335   0.11921
 Alpha virt. eigenvalues --    0.13618   0.18629   0.22215   0.24638   0.25209
 Alpha virt. eigenvalues --    0.26272   0.28338   0.29921   0.32598   0.32855

  Beta  occ. eigenvalues --  -89.14448 -19.31668 -19.27443  -8.17236  -6.12279
  Beta  occ. eigenvalues --   -6.11709  -6.11042  -1.21173  -1.13431  -0.77535
  Beta  occ. eigenvalues --   -0.61944  -0.56450  -0.53387  -0.48131  -0.43515
  Beta  occ. eigenvalues --   -0.41235
  Beta virt. eigenvalues --   -0.03989   0.05263   0.07201   0.08125   0.09929
  Beta virt. eigenvalues --    0.12836   0.14417   0.18966   0.22429   0.24913
  Beta virt. eigenvalues --    0.25490   0.26611   0.28732   0.30364   0.32766

 Mulliken atomic charges:
              1
     1  S    0.499310
     2  O   -0.614060
     3  O   -0.377269
     4  H    0.492019
 Sum of Mulliken atomic charges =   0.00000

 Dipole moment (field-independent basis, Debye):
    X=              1.3587    Y=              0.0416    Z=              0.7851  Tot=              1.5698
 Quadrupole moment (field-independent basis, Debye-Ang):
   XX=            -26.4278   YY=            -21.3708   ZZ=            -23.3723
   XY=              3.3949   XZ=              1.0556   YZ=              1.1839

 Normal termination of Gaussian 09 at Thu Aug 21 00:36:01 2025.
