 Gaussian 09, Revision C.01,
 Gaussian 09:  EM64L-G09RevC.01 23-Sep-2011

 -----------------------
 #sp wB97XD/6-311+G(3df)
 -----------------------

 99/4=131072,5=1,9=1/99;
 ---------------------
 Optimizacion del hoso
 ---------------------
 Charge =  0 Multiplicity = 2

                         Standard orientation:
 ---------------------------------------------------------------------
 Center     Atomic      Atomic             Coordinates (Angstroms)
 Number     Number       Type             X           Y           Z
 ---------------------------------------------------------------------
      1         16           0       -0.137012   -0.472021    0.010346
      2          8           0        1.308428    0.278158   -0.034673
      3          8           0       -1.188670    0.542793   -0.012774
      4          1           0        1.234116    0.984717    0.214038
 ---------------------------------------------------------------------

 SCF Done:  E(UwB97XD) =  -549.148443212     A.U. after   15 cycles

 The electronic state is 2-A.
 Alpha  occ. eigenvalues --  -89.15362 -19.29735 -19.28802  -8.18113  -6.13054
 Alpha  occ. eigenvalues --   -6.12797  -6.12444  -1.26398  -1.17294  -0.83375
 Alpha  occ. eigenvalues --   -0.65121  -0.57894  -0.57079  -0.51327  -0.47891
 Alpha  occ. eigenvalues --   -0.43002  -0.31471
 Alpha virt. eigenvalues --    0.05593   0.06451   0.07396   0.09312   0.11724
 Alpha virt. eigenvalues --    0.14177   0.20722   0.23523   0.24553   0.25109
 Alpha virt. eigenvalues --    0.26248   0.28370   0.31154   0.32530   0.32771

  Beta  occ. eigenvalues --  -89.14978 -19.29509 -19.27896  -8.17770  -6.12826
  Beta  occ. eigenvalues --   -6.12237  -6.11560  -1.25634  -1.15507  -0.81363
  Beta  occ. eigenvalues --   -0.63538  -0.57094  -0.53730  -0.49270  -0.44142
  Beta  occ. eigenvalues --   -0.41760
  Beta virt. eigenvalues --   -0.04283   0.06191   0.06819   0.07864   0.09914
  Beta virt. eigenvalues --    0.12427   0.15168   0.20827   0.23731   0.24899
  Beta virt. eigenvalues --    0.25393   0.26797   0.28678   0.31372   0.32834

 Mulliken atomic charges:
              1
     1  S    0.507120
     2  O   -0.640686
     3  O   -0.368754
     4  H    0.502320
 Sum of Mulliken atomic charges =   0.00000

 Dipole moment (field-independent basis, Debye):
    X=              1.1424    Y=             -0.2217    Z=              0.4570  Tot=              1.2502
 Quadrupole moment (field-independent basis, Debye-Ang):
   XX=            -26.4412   YY=            -21.5437   ZZ=            -23.3388
   XY=              2.9704   XZ=              0.6439   YZ=              0.6683

 Normal termination of Gaussian 09 at Thu Aug 21 00:36:09 2025.
