 Gaussian 09, Revision C.01,
 Gaussian 09:  EM64L-G09RevC.01 23-Sep-2011

 -----------------------
 #sp wB97XD/6-311+G(3df)
 -----------------------

 99/4=131072,5=1,9=1/99;
 ---------------------
 Optimizacion del hoso
 ---------------------
 Charge =  0 Multiplicity = 2

                         Standard orientation:
 ---------------------------------------------------------------------
 Center     Atomic      Atomic             Coordinates (Angstroms)
 Number     Number       Type             X           Y           Z
 ---------------------------------------------------------------------
      1         16           0       -0.086673   -0.513632    0.014755
      2          8           0        1.288125    0.320956   -0.044143
      3          8           0       -1.274673    0.550523   -0.015938
      4          1           0        1.279143    1.246272    0.244566
 ---------------------------------------------------------------------

 SCF Done:  E(UwB97XD) =  -549.204971636     A.U. after   16 cycles

 The electronic state is 2-A.
 Alpha  occ. eigenvalues --  -89.15895 -19.32490 -19.28568  -8.18438  -6.13411
 Alpha  occ. eigenvalues --   -6.13073  -6.12809  -1.21236  -1.10643  -0.82187
 Alpha  occ. eigenvalues --   -0.63987  -0.56065  -0.55404  -0.48616  -0.46175
 Alpha  occ. eigenvalues --   -0.41194  -0.32476
 Alpha virt. eigenvalues --    0.03694   0.06023   0.07044   0.09438   0.11425
 Alpha virt. eigenvalues --    0.12206   0.18047   0.22672   0.24362   0.24856
 Alpha virt. eigenvalues --    0.26299   0.28442   0.29586   0.32647   0.33145

  Beta  occ. eigenvalues --  -89.15530 -19.32259 -19.27532  -8.18113  -6.13199
  Beta  occ. eigenvalues --   -6.12619  -6.11889  -1.20438  -1.08387  -0.80066
  Beta  occ. eigenvalues --   -0.62578  -0.55324  -0.52535  -0.46748  -0.40839
  Beta  occ. eigenvalues --   -0.39926
  Beta virt. eigenvalues --   -0.05485   0.04245   0.06563   0.07396   0.09860
  Beta virt. eigenvalues --    0.12341   0.12613   0.18261   0.22910   0.24642
  Beta virt. eigenvalues --    0.25064   0.27026   0.28764   0.29933   0.32759

 Mulliken atomic charges:
              1
     1  S    0.510884
     2  O   -0.588043
     3  O   -0.423754
     4  H    0.500913
 Sum of Mulliken atomic charges =   0.00000

 Dipole moment (field-independent basis, Debye):
    X=              1.9473    Y=             -0.0299    Z=              0.5300  Tot=              2.0184
 Quadrupole moment (field-independent basis, Debye-Ang):
   XX=            -26.8154   YY=            -20.5789   ZZ=            -23.8359
   XY=              3.6585   XZ=              0.7477   YZ=              0.8335

 Normal termination of Gaussian 09 at Wed Aug 20 23:00:05 2025.
