 Gaussian 09, Revision C.01,
 Gaussian 09:  EM64L-G09RevC.01 23-Sep-2011

 -----------------------
 #sp wB97XD/6-311+G(3df)
 -----------------------

 99/4=131072,5=1,9=1/99;
 ---------------------
 Optimizacion del hoso
 ---------------------
 Charge =  0 Multiplicity = 2

                         Standard orientation:
 ---------------------------------------------------------------------
 Center     Atomic      Atomic             Coordinates (Angstroms)
 Number     Number       Type             X           Y           Z
 ---------------------------------------------------------------------
      1         16           0       -0.199800   -0.417073    0.018770
      2          8           0        1.333189    0.178439   -0.045491
      3          8           0       -1.075973    0.519832   -0.026677
      4          1           0        1.139068    1.086993    0.277034
 ---------------------------------------------------------------------

 SCF Done:  E(UwB97XD) =  -549.166541855     A.U. after   15 cycles

 The electronic state is 2-A.
 Alpha  occ. eigenvalues --  -89.12482 -19.30633 -19.28205  -8.16051  -6.10908
 Alpha  occ. eigenvalues --   -6.10667  -6.10349  -1.29807  -1.16563  -0.76579
 Alpha  occ. eigenvalues --   -0.62764  -0.61273  -0.60475  -0.53099  -0.47385
 Alpha  occ. eigenvalues --   -0.43357  -0.28322
 Alpha virt. eigenvalues --    0.05822   0.07071   0.08512   0.09275   0.12398
 Alpha virt. eigenvalues --    0.15246   0.19240   0.22449   0.24685   0.25249
 Alpha virt. eigenvalues --    0.26437   0.27755   0.30799   0.32254   0.32662

  Beta  occ. eigenvalues --  -89.12099 -19.30382 -19.27482  -8.15706  -6.10674
  Beta  occ. eigenvalues --   -6.10141  -6.09434  -1.28418  -1.15806  -0.74093
  Beta  occ. eigenvalues --   -0.61342  -0.60398  -0.56901  -0.51640  -0.45018
  Beta  occ. eigenvalues --   -0.41882
  Beta virt. eigenvalues --   -0.01185   0.06150   0.07622   0.08885   0.10177
  Beta virt. eigenvalues --    0.13617   0.15907   0.19703   0.22605   0.25051
  Beta virt. eigenvalues --    0.25459   0.26816   0.28147   0.31043   0.32551

 Mulliken atomic charges:
              1
     1  S    0.470798
     2  O   -0.652776
     3  O   -0.298584
     4  H    0.480562
 Sum of Mulliken atomic charges =   0.00000

 Dipole moment (field-independent basis, Debye):
    X=              0.2628    Y=              0.4798    Z=              0.5227  Tot=              0.7567
 Quadrupole moment (field-independent basis, Debye-Ang):
   XX=            -26.1947   YY=            -21.6142   ZZ=            -23.3608
   XY=              2.8326   XZ=              0.6091   YZ=              0.8631

 Normal termination of Gaussian 09 at Fri Aug 21 00:31:52 2020.
