 Gaussian 09, Revision C.01,
 Gaussian 09:  EM64L-G09RevC.01 23-Sep-2011

 -----------------------
 #sp wB97XD/6-311+G(3df)
 -----------------------

 99/4=131072,5=1,9=1/99;
 ---------------------
 Optimizacion del hoso
 ---------------------
 Charge =  0 Multiplicity = 2

                         Standard orientation:
 ---------------------------------------------------------------------
 Center     Atomic      Atomic             Coordinates (Angstroms)
 Number     Number       Type             X           Y           Z
 ---------------------------------------------------------------------
      1         16           0       -0.138597   -0.478965    0.006700
      2          8           0        1.310542    0.255841   -0.017582
      3          8           0       -1.179277    0.548726   -0.008529
      4          1           0        1.167439    1.226905    0.101696
 ---------------------------------------------------------------------

 SCF Done:  E(UwB97XD) =  -549.220790673     A.U. after   15 cycles

 The electronic state is 2-A.
 Alpha  occ. eigenvalues --  -89.14920 -19.31989 -19.28284  -8.17679  -6.12608
 Alpha  occ. eigenvalues --   -6.12373  -6.12017  -1.22344  -1.14690  -0.79721
 Alpha  occ. eigenvalues --   -0.62929  -0.57357  -0.56769  -0.50308  -0.47455
 Alpha  occ. eigenvalues --   -0.42478  -0.30728
 Alpha virt. eigenvalues --    0.04939   0.06751   0.07551   0.09407   0.11513
 Alpha virt. eigenvalues --    0.13046   0.18988   0.22602   0.24460   0.24778
 Alpha virt. eigenvalues --    0.26674   0.27712   0.30409   0.32433   0.32973

  Beta  occ. eigenvalues --  -89.14533 -19.31719 -19.27419  -8.17333  -6.12379
  Beta  occ. eigenvalues --   -6.11806  -6.11127  -1.21175  -1.13244  -0.77413
  Beta  occ. eigenvalues --   -0.61732  -0.56691  -0.52858  -0.48864  -0.43315
  Beta  occ. eigenvalues --   -0.41294
  Beta virt. eigenvalues --   -0.03708   0.05401   0.07091   0.08015   0.10010
  Beta virt. eigenvalues --    0.12587   0.13590   0.19331   0.22818   0.24812
  Beta virt. eigenvalues --    0.24940   0.27327   0.28004   0.30597   0.32569

 Mulliken atomic charges:
              1
     1  S    0.509826
     2  O   -0.614955
     3  O   -0.387676
     4  H    0.492805
 Sum of Mulliken atomic charges =   0.00000

 Dipole moment (field-independent basis, Debye):
    X=              1.2249    Y=              0.1381    Z=              0.2097  Tot=              1.2504
 Quadrupole moment (field-independent basis, Debye-Ang):
   XX=            -26.8275   YY=            -20.7850   ZZ=            -23.7864
   XY=              3.3614   XZ=              0.2542   YZ=              0.3451

 Normal termination of Gaussian 09 at Thu Aug 21 00:03:37 2025.
