 Gaussian 09, Revision C.01,
 Gaussian 09:  EM64L-G09RevC.01 23-Sep-2011

 -----------------------
 #sp wB97XD/6-311+G(3df)
 -----------------------

 99/4=131072,5=1,9=1/99;
 ---------------------
 Optimizacion del hoso
 ---------------------
 Charge =  0 Multiplicity = 2

                         Standard orientation:
 ---------------------------------------------------------------------
 Center     Atomic      Atomic             Coordinates (Angstroms)
 Number     Number       Type             X           Y           Z
 ---------------------------------------------------------------------
      1         16           0       -0.190549   -0.491704    0.016610
      2          8           0        1.391830    0.240759   -0.046647
      3          8           0       -1.166096    0.600052   -0.022651
      4          1           0        1.242908    1.140781    0.288621
 ---------------------------------------------------------------------

 SCF Done:  E(UwB97XD) =  -549.215468975     A.U. after   16 cycles

 The electronic state is 2-A.
 Alpha  occ. eigenvalues --  -89.15906 -19.30559 -19.29807  -8.18595  -6.13507
 Alpha  occ. eigenvalues --   -6.13288  -6.12963  -1.20894  -1.13453  -0.79142
 Alpha  occ. eigenvalues --   -0.61795  -0.56656  -0.55917  -0.51690  -0.45835
 Alpha  occ. eigenvalues --   -0.42586  -0.32403
 Alpha virt. eigenvalues --    0.02992   0.06266   0.07102   0.09258   0.10319
 Alpha virt. eigenvalues --    0.13374   0.18974   0.22817   0.24550   0.24721
 Alpha virt. eigenvalues --    0.25994   0.27861   0.30112   0.32074   0.32507

  Beta  occ. eigenvalues --  -89.15520 -19.30364 -19.28878  -8.18254  -6.13278
  Beta  occ. eigenvalues --   -6.12754  -6.12051  -1.19285  -1.12483  -0.76318
  Beta  occ. eigenvalues --   -0.60843  -0.55681  -0.52113  -0.49515  -0.42811
  Beta  occ. eigenvalues --   -0.41521
  Beta virt. eigenvalues --   -0.05226   0.03837   0.06560   0.07597   0.09829
  Beta virt. eigenvalues --    0.10848   0.14126   0.19204   0.23042   0.24807
  Beta virt. eigenvalues --    0.25017   0.26416   0.28246   0.30409   0.32396

 Mulliken atomic charges:
              1
     1  S    0.540038
     2  O   -0.676921
     3  O   -0.349548
     4  H    0.486431
 Sum of Mulliken atomic charges =   0.00000

 Dipole moment (field-independent basis, Debye):
    X=              0.5261    Y=             -0.2782    Z=              0.5804  Tot=              0.8313
 Quadrupole moment (field-independent basis, Debye-Ang):
   XX=            -27.0901   YY=            -21.1275   ZZ=            -23.6352
   XY=              3.2374   XZ=              0.7190   YZ=              0.9121

 Normal termination of Gaussian 09 at Thu Aug 21 00:40:04 2025.
