 Gaussian 09, Revision C.01,
 Gaussian 09:  EM64L-G09RevC.01 23-Sep-2011

 -----------------------
 #sp wB97XD/6-311+G(3df)
 -----------------------

 99/4=131072,5=1,9=1/99;
 ---------------------
 Optimizacion del hoso
 ---------------------
 Charge =  0 Multiplicity = 2

                         Standard orientation:
 ---------------------------------------------------------------------
 Center     Atomic      Atomic             Coordinates (Angstroms)
 Number     Number       Type             X           Y           Z
 ---------------------------------------------------------------------
      1         16           0       -0.104678   -0.500791    0.015250
      2          8           0        1.295955    0.298997   -0.044490
      3          8           0       -1.244397    0.550212   -0.017228
      4          1           0        1.262385    1.218980    0.249752
 ---------------------------------------------------------------------

 SCF Done:  E(UwB97XD) =  -549.213362567     A.U. after   16 cycles

 The electronic state is 2-A.
 Alpha  occ. eigenvalues --  -89.15645 -19.32287 -19.28463  -8.18235  -6.13195
 Alpha  occ. eigenvalues --   -6.12894  -6.12595  -1.21461  -1.12153  -0.81552
 Alpha  occ. eigenvalues --   -0.63782  -0.56417  -0.55675  -0.49251  -0.46551
 Alpha  occ. eigenvalues --   -0.41633  -0.31996
 Alpha virt. eigenvalues --    0.04187   0.06411   0.07154   0.09415   0.11568
 Alpha virt. eigenvalues --    0.12528   0.18437   0.22600   0.24426   0.24881
 Alpha virt. eigenvalues --    0.26353   0.28334   0.29805   0.32603   0.33047

  Beta  occ. eigenvalues --  -89.15271 -19.32051 -19.27482  -8.17901  -6.12976
  Beta  occ. eigenvalues --   -6.12397  -6.11686  -1.20590  -1.10135  -0.79382
  Beta  occ. eigenvalues --   -0.62386  -0.55652  -0.52639  -0.47308  -0.41759
  Beta  occ. eigenvalues --   -0.40410
  Beta virt. eigenvalues --   -0.04980   0.04715   0.06810   0.07596   0.09892
  Beta virt. eigenvalues --    0.12451   0.13110   0.18675   0.22844   0.24726
  Beta virt. eigenvalues --    0.25076   0.26975   0.28683   0.30142   0.32717

 Mulliken atomic charges:
              1
     1  S    0.512434
     2  O   -0.598386
     3  O   -0.412992
     4  H    0.498944
 Sum of Mulliken atomic charges =   0.00000

 Dipole moment (field-independent basis, Debye):
    X=              1.7441    Y=             -0.0104    Z=              0.5346  Tot=              1.8242
 Quadrupole moment (field-independent basis, Debye-Ang):
   XX=            -26.7573   YY=            -20.7575   ZZ=            -23.7464
   XY=              3.5847   XZ=              0.7327   YZ=              0.8380

 Normal termination of Gaussian 09 at Fri Aug 21 00:31:56 2020.
