 Gaussian 09, Revision C.01,
 Gaussian 09:  EM64L-G09RevC.01 23-Sep-2011

 -----------------------
 #sp wB97XD/6-311+G(3df)
 -----------------------

 99/4=131072,5=1,9=1/99;
 ---------------------
 Optimizacion del hoso
 ---------------------
 Charge =  0 Multiplicity = 2

                         Standard orientation:
 ---------------------------------------------------------------------
 Center     Atomic      Atomic             Coordinates (Angstroms)
 Number     Number       Type             X           Y           Z
 ---------------------------------------------------------------------
      1         16           0       -0.120294   -0.473256    0.017256
      2          8           0        1.314111    0.276940   -0.046883
      3          8           0       -1.205753    0.523986   -0.023271
      4          1           0        1.057839    1.164692    0.285127
 ---------------------------------------------------------------------

 SCF Done:  E(UwB97XD) =  -549.218687735     A.U. after   15 cycles

 The electronic state is 2-A.
 Alpha  occ. eigenvalues --  -89.14992 -19.32589 -19.28627  -8.17757  -6.12670
 Alpha  occ. eigenvalues --   -6.12454  -6.12103  -1.22936  -1.14938  -0.79389
 Alpha  occ. eigenvalues --   -0.63486  -0.58015  -0.56769  -0.50795  -0.47377
 Alpha  occ. eigenvalues --   -0.42628  -0.31179
 Alpha virt. eigenvalues --    0.05037   0.06831   0.07451   0.09297   0.11349
 Alpha virt. eigenvalues --    0.13379   0.18822   0.22140   0.24290   0.24716
 Alpha virt. eigenvalues --    0.26153   0.27713   0.30553   0.32326   0.32763

  Beta  occ. eigenvalues --  -89.14604 -19.32338 -19.27741  -8.17411  -6.12440
  Beta  occ. eigenvalues --   -6.11894  -6.11207  -1.21879  -1.13362  -0.76982
  Beta  occ. eigenvalues --   -0.62341  -0.57241  -0.53435  -0.48697  -0.43543
  Beta  occ. eigenvalues --   -0.41377
  Beta virt. eigenvalues --   -0.04112   0.05469   0.07195   0.07923   0.09883
  Beta virt. eigenvalues --    0.12429   0.13940   0.19194   0.22313   0.24547
  Beta virt. eigenvalues --    0.24968   0.26512   0.28178   0.30812   0.32557

 Mulliken atomic charges:
              1
     1  S    0.502701
     2  O   -0.610535
     3  O   -0.389401
     4  H    0.497235
 Sum of Mulliken atomic charges =   0.00000

 Dipole moment (field-independent basis, Debye):
    X=              1.2029    Y=              0.0351    Z=              0.5548  Tot=              1.3251
 Quadrupole moment (field-independent basis, Debye-Ang):
   XX=            -27.1739   YY=            -21.2081   ZZ=            -23.5825
   XY=              2.7748   XZ=              0.5942   YZ=              0.9083

 Normal termination of Gaussian 09 at Wed Aug 20 23:00:04 2025.
