 Gaussian 09, Revision C.01,
 Gaussian 09:  EM64L-G09RevC.01 23-Sep-2011

 -----------------------
 #sp wB97XD/6-311+G(3df)
 -----------------------

 99/4=131072,5=1,9=1/99;
 ---------------------
 Optimizacion del hoso
 ---------------------
 Charge =  0 Multiplicity = 2

                         Standard orientation:
 ---------------------------------------------------------------------
 Center     Atomic      Atomic             Coordinates (Angstroms)
 Number     Number       Type             X           Y           Z
 ---------------------------------------------------------------------
      1         16           0       -0.138800   -0.475256    0.013981
      2          8           0        1.310263    0.256326   -0.038122
      3          8           0       -1.184023    0.546310   -0.017340
      4          1           0        1.210870    1.183002    0.220007
 ---------------------------------------------------------------------

 SCF Done:  E(UwB97XD) =  -549.221268844     A.U. after   15 cycles

 The electronic state is 2-A.
 Alpha  occ. eigenvalues --  -89.14915 -19.31818 -19.28315  -8.17668  -6.12600
 Alpha  occ. eigenvalues --   -6.12361  -6.12005  -1.22501  -1.14950  -0.80055
 Alpha  occ. eigenvalues --   -0.63254  -0.57395  -0.56640  -0.50489  -0.47276
 Alpha  occ. eigenvalues --   -0.42503  -0.30857
 Alpha virt. eigenvalues --    0.05016   0.06763   0.07594   0.09381   0.11746
 Alpha virt. eigenvalues --    0.13307   0.19093   0.22534   0.24504   0.24944
 Alpha virt. eigenvalues --    0.26478   0.28032   0.30302   0.32468   0.32919

  Beta  occ. eigenvalues --  -89.14529 -19.31567 -19.27437  -8.17324  -6.12371
  Beta  occ. eigenvalues --   -6.11796  -6.11120  -1.21367  -1.13478  -0.77786
  Beta  occ. eigenvalues --   -0.61952  -0.56625  -0.53072  -0.48659  -0.43425
  Beta  occ. eigenvalues --   -0.41301
  Beta virt. eigenvalues --   -0.03803   0.05485   0.07109   0.08049   0.09982
  Beta virt. eigenvalues --    0.12719   0.14004   0.19393   0.22769   0.24842
  Beta virt. eigenvalues --    0.25119   0.26983   0.28408   0.30568   0.32625

 Mulliken atomic charges:
              1
     1  S    0.507155
     2  O   -0.618386
     3  O   -0.383390
     4  H    0.494621
 Sum of Mulliken atomic charges =   0.00000

 Dipole moment (field-independent basis, Debye):
    X=              1.2742    Y=              0.0984    Z=              0.4566  Tot=              1.3571
 Quadrupole moment (field-independent basis, Debye-Ang):
   XX=            -26.6583   YY=            -21.0018   ZZ=            -23.6447
   XY=              3.3888   XZ=              0.5820   YZ=              0.7269

 Normal termination of Gaussian 09 at Thu Aug 21 00:14:13 2025.
