 Gaussian 09, Revision C.01,
 Gaussian 09:  EM64L-G09RevC.01 23-Sep-2011

 -----------------------
 #sp wB97XD/6-311+G(3df)
 -----------------------

 99/4=131072,5=1,9=1/99;
 ---------------------
 Optimizacion del hoso
 ---------------------
 Charge =  0 Multiplicity = 2

                         Standard orientation:
 ---------------------------------------------------------------------
 Center     Atomic      Atomic             Coordinates (Angstroms)
 Number     Number       Type             X           Y           Z
 ---------------------------------------------------------------------
      1         16           0       -0.140680   -0.475881    0.023124
      2          8           0        1.311639    0.234506   -0.055170
      3          8           0       -1.182627    0.547870   -0.028315
      4          1           0        1.218778    1.355091    0.297894
 ---------------------------------------------------------------------

 SCF Done:  E(UwB97XD) =  -549.194803715     A.U. after   15 cycles

 The electronic state is 2-A.
 Alpha  occ. eigenvalues --  -89.14548 -19.32866 -19.27986  -8.17298  -6.12219
 Alpha  occ. eigenvalues --   -6.12001  -6.11641  -1.21041  -1.13073  -0.77600
 Alpha  occ. eigenvalues --   -0.61165  -0.56938  -0.56136  -0.49705  -0.46551
 Alpha  occ. eigenvalues --   -0.42112  -0.30456
 Alpha virt. eigenvalues --    0.02277   0.07034   0.07812   0.09299   0.10108
 Alpha virt. eigenvalues --    0.12784   0.17006   0.22103   0.24518   0.25225
 Alpha virt. eigenvalues --    0.26602   0.28141   0.30295   0.32526   0.33119

  Beta  occ. eigenvalues --  -89.14163 -19.32608 -19.27123  -8.16954  -6.11990
  Beta  occ. eigenvalues --   -6.11431  -6.10764  -1.19698  -1.11788  -0.75067
  Beta  occ. eigenvalues --   -0.60021  -0.56104  -0.52672  -0.47786  -0.42885
  Beta  occ. eigenvalues --   -0.40933
  Beta virt. eigenvalues --   -0.03572   0.02641   0.07374   0.08212   0.09958
  Beta virt. eigenvalues --    0.11081   0.13283   0.17771   0.22254   0.24861
  Beta virt. eigenvalues --    0.25386   0.27133   0.28501   0.30594   0.32653

 Mulliken atomic charges:
              1
     1  S    0.486297
     2  O   -0.550357
     3  O   -0.392370
     4  H    0.456430
 Sum of Mulliken atomic charges =   0.00000

 Dipole moment (field-independent basis, Debye):
    X=              1.3817    Y=              0.3758    Z=              0.6121  Tot=              1.5573
 Quadrupole moment (field-independent basis, Debye-Ang):
   XX=            -26.7633   YY=            -20.4508   ZZ=            -23.7661
   XY=              3.7819   XZ=              0.7393   YZ=              1.0313

 Normal termination of Gaussian 09 at Thu Aug 21 00:36:53 2025.
