 Gaussian 09, Revision C.01,
 Gaussian 09:  EM64L-G09RevC.01 23-Sep-2011

 -----------------------
 #sp wB97XD/6-311+G(3df)
 -----------------------

 99/4=131072,5=1,9=1/99;
 ---------------------
 Optimizacion del hoso
 ---------------------
 Charge =  0 Multiplicity = 2

                         Standard orientation:
 ---------------------------------------------------------------------
 Center     Atomic      Atomic             Coordinates (Angstroms)
 Number     Number       Type             X           Y           Z
 ---------------------------------------------------------------------
      1         16           0       -0.154996   -0.460140    0.016877
      2          8           0        1.316520    0.236019   -0.045238
      3          8           0       -1.157210    0.541003   -0.021562
      4          1           0        1.205455    1.146061    0.264376
 ---------------------------------------------------------------------

 SCF Done:  E(UwB97XD) =  -549.218753010     A.U. after   15 cycles

 The electronic state is 2-A.
 Alpha  occ. eigenvalues --  -89.14418 -19.31527 -19.28281  -8.17299  -6.12214
 Alpha  occ. eigenvalues --   -6.11992  -6.11626  -1.23622  -1.15948  -0.79251
 Alpha  occ. eigenvalues --   -0.63079  -0.58100  -0.57270  -0.51213  -0.47354
 Alpha  occ. eigenvalues --   -0.42868  -0.30313
 Alpha virt. eigenvalues --    0.05312   0.06859   0.07874   0.09348   0.11923
 Alpha virt. eigenvalues --    0.13865   0.19236   0.22427   0.24582   0.25083
 Alpha virt. eigenvalues --    0.26428   0.28030   0.30427   0.32423   0.32844

  Beta  occ. eigenvalues --  -89.14030 -19.31282 -19.27440  -8.16952  -6.11982
  Beta  occ. eigenvalues --   -6.11416  -6.10746  -1.22327  -1.14767  -0.76930
  Beta  occ. eigenvalues --   -0.61785  -0.57256  -0.53665  -0.49269  -0.44120
  Beta  occ. eigenvalues --   -0.41623
  Beta virt. eigenvalues --   -0.03222   0.05736   0.07260   0.08291   0.10016
  Beta virt. eigenvalues --    0.12937   0.14608   0.19576   0.22648   0.24917
  Beta virt. eigenvalues --    0.25281   0.26837   0.28425   0.30714   0.32626

 Mulliken atomic charges:
              1
     1  S    0.499374
     2  O   -0.627567
     3  O   -0.363633
     4  H    0.491826
 Sum of Mulliken atomic charges =   0.00000

 Dipole moment (field-independent basis, Debye):
    X=              1.0487    Y=              0.1593    Z=              0.5388  Tot=              1.1897
 Quadrupole moment (field-independent basis, Debye-Ang):
   XX=            -26.5082   YY=            -21.2345   ZZ=            -23.5151
   XY=              3.2760   XZ=              0.6777   YZ=              0.8527

 Normal termination of Gaussian 09 at Fri Aug 21 00:31:53 2020.
