 Gaussian 09, Revision C.01,
 Gaussian 09:  EM64L-G09RevC.01 23-Sep-2011

 -----------------------
 #sp wB97XD/6-311+G(3df)
 -----------------------

 99/4=131072,5=1,9=1/99;
 ---------------------
 Optimizacion del hoso
 ---------------------
 Charge =  0 Multiplicity = 2

                         Standard orientation:
 ---------------------------------------------------------------------
 Center     Atomic      Atomic             Coordinates (Angstroms)
 Number     Number       Type             X           Y           Z
 ---------------------------------------------------------------------
      1         16           0       -0.139301   -0.474488    0.017944
      2          8           0        1.310527    0.251009   -0.047605
      3          8           0       -1.184882    0.546065   -0.022025
      4          1           0        1.223660    1.215215    0.269939
 ---------------------------------------------------------------------

 SCF Done:  E(UwB97XD) =  -549.218945220     A.U. after   15 cycles

 The electronic state is 2-A.
 Alpha  occ. eigenvalues --  -89.14802 -19.32155 -19.28225  -8.17553  -6.12482
 Alpha  occ. eigenvalues --   -6.12248  -6.11890  -1.21997  -1.14424  -0.79360
 Alpha  occ. eigenvalues --   -0.62796  -0.57284  -0.56454  -0.50357  -0.46998
 Alpha  occ. eigenvalues --   -0.42394  -0.30788
 Alpha virt. eigenvalues --    0.04628   0.06848   0.07668   0.09378   0.11607
 Alpha virt. eigenvalues --    0.13077   0.18339   0.22329   0.24529   0.25067
 Alpha virt. eigenvalues --    0.26464   0.28111   0.30214   0.32493   0.32956

  Beta  occ. eigenvalues --  -89.14416 -19.31908 -19.27346  -8.17209  -6.12254
  Beta  occ. eigenvalues --   -6.11682  -6.11010  -1.20795  -1.13014  -0.77022
  Beta  occ. eigenvalues --   -0.61520  -0.56465  -0.53020  -0.48365  -0.43299
  Beta  occ. eigenvalues --   -0.41192
  Beta virt. eigenvalues --   -0.03755   0.05054   0.07194   0.08109   0.09980
  Beta virt. eigenvalues --    0.12728   0.13587   0.18770   0.22538   0.24860
  Beta virt. eigenvalues --    0.25248   0.26938   0.28499   0.30522   0.32644

 Mulliken atomic charges:
              1
     1  S    0.502013
     2  O   -0.603903
     3  O   -0.384960
     4  H    0.486850
 Sum of Mulliken atomic charges =   0.00000

 Dipole moment (field-independent basis, Debye):
    X=              1.3217    Y=              0.1605    Z=              0.5590  Tot=              1.4440
 Quadrupole moment (field-independent basis, Debye-Ang):
   XX=            -26.6417   YY=            -20.9399   ZZ=            -23.6362
   XY=              3.4958   XZ=              0.7096   YZ=              0.8946

 Normal termination of Gaussian 09 at Thu Aug 21 00:36:28 2025.
