 Gaussian 09, Revision C.01,
 Gaussian 09:  EM64L-G09RevC.01 23-Sep-2011

 -----------------------
 #sp wB97XD/6-311+G(3df)
 -----------------------

 99/4=131072,5=1,9=1/99;
 ---------------------
 Optimizacion del hoso
 ---------------------
 Charge =  0 Multiplicity = 2

                         Standard orientation:
 ---------------------------------------------------------------------
 Center     Atomic      Atomic             Coordinates (Angstroms)
 Number     Number       Type             X           Y           Z
 ---------------------------------------------------------------------
      1         16           0       -0.145113   -0.474108    0.015963
      2          8           0        1.308786    0.249538   -0.044329
      3          8           0       -1.178772    0.552611   -0.019001
      4          1           0        1.281693    1.168533    0.251242
 ---------------------------------------------------------------------

 SCF Done:  E(UwB97XD) =  -549.221026111     A.U. after   15 cycles

 The electronic state is 2-A.
 Alpha  occ. eigenvalues --  -89.14890 -19.31560 -19.28227  -8.17634  -6.12572
 Alpha  occ. eigenvalues --   -6.12326  -6.11968  -1.22332  -1.14918  -0.80221
 Alpha  occ. eigenvalues --   -0.63263  -0.57208  -0.56486  -0.50406  -0.47065
 Alpha  occ. eigenvalues --   -0.42461  -0.30819
 Alpha virt. eigenvalues --    0.04926   0.06772   0.07671   0.09393   0.11885
 Alpha virt. eigenvalues --    0.13430   0.18958   0.22616   0.24565   0.25164
 Alpha virt. eigenvalues --    0.26506   0.28274   0.30138   0.32566   0.32956

  Beta  occ. eigenvalues --  -89.14505 -19.31318 -19.27344  -8.17291  -6.12345
  Beta  occ. eigenvalues --   -6.11760  -6.11089  -1.21166  -1.13490  -0.77987
  Beta  occ. eigenvalues --   -0.61883  -0.56340  -0.53049  -0.48436  -0.43404
  Beta  occ. eigenvalues --   -0.41270
  Beta virt. eigenvalues --   -0.03756   0.05406   0.07115   0.08115   0.09999
  Beta virt. eigenvalues --    0.12764   0.14239   0.19251   0.22862   0.24891
  Beta virt. eigenvalues --    0.25358   0.27010   0.28634   0.30459   0.32704

 Mulliken atomic charges:
              1
     1  S    0.505601
     2  O   -0.619941
     3  O   -0.379125
     4  H    0.493465
 Sum of Mulliken atomic charges =   0.00000

 Dipole moment (field-independent basis, Debye):
    X=              1.3264    Y=              0.0973    Z=              0.5325  Tot=              1.4326
 Quadrupole moment (field-independent basis, Debye-Ang):
   XX=            -26.3733   YY=            -21.0645   ZZ=            -23.5916
   XY=              3.6022   XZ=              0.7260   YZ=              0.8238

 Normal termination of Gaussian 09 at Wed Aug 20 22:59:58 2025.
