 Gaussian 09, Revision C.01,
 Gaussian 09:  EM64L-G09RevC.01 23-Sep-2011

 -----------------------
 #sp wB97XD/6-311+G(3df)
 -----------------------

 99/4=131072,5=1,9=1/99;
 ---------------------
 Optimizacion del hoso
 ---------------------
 Charge =  0 Multiplicity = 2

                         Standard orientation:
 ---------------------------------------------------------------------
 Center     Atomic      Atomic             Coordinates (Angstroms)
 Number     Number       Type             X           Y           Z
 ---------------------------------------------------------------------
      1         16           0       -0.138744   -0.476498    0.011604
      2          8           0        1.310374    0.256174   -0.031240
      3          8           0       -1.182425    0.547149   -0.014523
      4          1           0        1.196311    1.197390    0.180446
 ---------------------------------------------------------------------

 SCF Done:  E(UwB97XD) =  -549.221234122     A.U. after   15 cycles

 The electronic state is 2-A.
 Alpha  occ. eigenvalues --  -89.14922 -19.31856 -19.28305  -8.17677  -6.12608
 Alpha  occ. eigenvalues --   -6.12370  -6.12014  -1.22476  -1.14891  -0.79988
 Alpha  occ. eigenvalues --   -0.63169  -0.57382  -0.56697  -0.50423  -0.47364
 Alpha  occ. eigenvalues --   -0.42499  -0.30807
 Alpha virt. eigenvalues --    0.05012   0.06754   0.07577   0.09391   0.11684
 Alpha virt. eigenvalues --    0.13220   0.19098   0.22579   0.24481   0.24885
 Alpha virt. eigenvalues --    0.26547   0.27926   0.30351   0.32454   0.32937

  Beta  occ. eigenvalues --  -89.14536 -19.31597 -19.27432  -8.17332  -6.12380
  Beta  occ. eigenvalues --   -6.11804  -6.11127  -1.21333  -1.13426  -0.77712
  Beta  occ. eigenvalues --   -0.61901  -0.56654  -0.52996  -0.48749  -0.43392
  Beta  occ. eigenvalues --   -0.41304
  Beta virt. eigenvalues --   -0.03766   0.05481   0.07098   0.08036   0.09993
  Beta virt. eigenvalues --    0.12685   0.13873   0.19405   0.22809   0.24826
  Beta virt. eigenvalues --    0.25052   0.27097   0.28285   0.30583   0.32604

 Mulliken atomic charges:
              1
     1  S    0.508325
     2  O   -0.617930
     3  O   -0.384782
     4  H    0.494387
 Sum of Mulliken atomic charges =   0.00000

 Dipole moment (field-independent basis, Debye):
    X=              1.2566    Y=              0.1118    Z=              0.3739  Tot=              1.3158
 Quadrupole moment (field-independent basis, Debye-Ang):
   XX=            -26.7151   YY=            -20.9238   ZZ=            -23.6982
   XY=              3.3817   XZ=              0.4693   YZ=              0.6024

 Normal termination of Gaussian 09 at Thu Aug 21 00:14:09 2025.
