 Gaussian 09, Revision C.01,
 Gaussian 09:  EM64L-G09RevC.01 23-Sep-2011

 -----------------------
 #sp wB97XD/6-311+G(3df)
 -----------------------

 99/4=131072,5=1,9=1/99;
 ---------------------
 Optimizacion del hoso
 ---------------------
 Charge =  0 Multiplicity = 2

                         Standard orientation:
 ---------------------------------------------------------------------
 Center     Atomic      Atomic             Coordinates (Angstroms)
 Number     Number       Type             X           Y           Z
 ---------------------------------------------------------------------
      1         16           0       -0.138386   -0.473520    0.014726
      2          8           0        1.309725    0.261916   -0.042460
      3          8           0       -1.186391    0.544799   -0.018112
      4          1           0        1.227498    1.122609    0.248956
 ---------------------------------------------------------------------

 SCF Done:  E(UwB97XD) =  -549.218276873     A.U. after   15 cycles

 The electronic state is 2-A.
 Alpha  occ. eigenvalues --  -89.15010 -19.31381 -19.28433  -8.17761  -6.12695
 Alpha  occ. eigenvalues --   -6.12452  -6.12096  -1.23140  -1.15567  -0.80844
 Alpha  occ. eigenvalues --   -0.63812  -0.57527  -0.56693  -0.50756  -0.47334
 Alpha  occ. eigenvalues --   -0.42618  -0.31044
 Alpha virt. eigenvalues --    0.05249   0.06702   0.07561   0.09359   0.11847
 Alpha virt. eigenvalues --    0.13694   0.19756   0.22677   0.24538   0.24952
 Alpha virt. eigenvalues --    0.26364   0.28166   0.30307   0.32487   0.32850

  Beta  occ. eigenvalues --  -89.14624 -19.31143 -19.27543  -8.17417  -6.12467
  Beta  occ. eigenvalues --   -6.11888  -6.11213  -1.22097  -1.14019  -0.78645
  Beta  occ. eigenvalues --   -0.62416  -0.56717  -0.53289  -0.48731  -0.43616
  Beta  occ. eigenvalues --   -0.41400
  Beta virt. eigenvalues --   -0.03945   0.05751   0.07055   0.08019   0.09958
  Beta virt. eigenvalues --    0.12689   0.14566   0.19952   0.22941   0.24863
  Beta virt. eigenvalues --    0.25158   0.26820   0.28542   0.30607   0.32667

 Mulliken atomic charges:
              1
     1  S    0.508106
     2  O   -0.629607
     3  O   -0.378864
     4  H    0.500365
 Sum of Mulliken atomic charges =   0.00000

 Dipole moment (field-independent basis, Debye):
    X=              1.2610    Y=              0.0081    Z=              0.5190  Tot=              1.3636
 Quadrupole moment (field-independent basis, Debye-Ang):
   XX=            -26.5606   YY=            -21.2200   ZZ=            -23.5300
   XY=              3.2898   XZ=              0.6849   YZ=              0.8014

 Normal termination of Gaussian 09 at Thu Aug 21 00:36:28 2025.
