 Gaussian 09, Revision C.01,
 Gaussian 09:  EM64L-G09RevC.01 23-Sep-2011

 -----------------------
 #sp wB97XD/6-311+G(3df)
 -----------------------

 99/4=131072,5=1,9=1/99;
 ---------------------
 Optimizacion del hoso
 ---------------------
 Charge =  0 Multiplicity = 2

                         Standard orientation:
 ---------------------------------------------------------------------
 Center     Atomic      Atomic             Coordinates (Angstroms)
 Number     Number       Type             X           Y           Z
 ---------------------------------------------------------------------
      1         16           0       -0.243167   -0.506386    0.016834
      2          8           0        1.473893    0.220859   -0.047970
      3          8           0       -1.144879    0.652592   -0.025335
      4          1           0        1.258561    1.114563    0.317088
 ---------------------------------------------------------------------

 SCF Done:  E(UwB97XD) =  -549.201881236     A.U. after   17 cycles

 The electronic state is 2-A.
 Alpha  occ. eigenvalues --  -89.16726 -19.31163 -19.29610  -8.19399  -6.14289
 Alpha  occ. eigenvalues --   -6.14090  -6.13793  -1.20797  -1.10884  -0.79064
 Alpha  occ. eigenvalues --   -0.59818  -0.56609  -0.55795  -0.52521  -0.44192
 Alpha  occ. eigenvalues --   -0.42258  -0.33666
 Alpha virt. eigenvalues --   -0.00003   0.05855   0.06694   0.09068   0.09764
 Alpha virt. eigenvalues --    0.13245   0.18713   0.23120   0.24369   0.24466
 Alpha virt. eigenvalues --    0.25656   0.27629   0.29975   0.31596   0.32267

  Beta  occ. eigenvalues --  -89.16337 -19.30193 -19.29472  -8.19058  -6.14055
  Beta  occ. eigenvalues --   -6.13581  -6.12854  -1.18851  -1.10313  -0.75851
  Beta  occ. eigenvalues --   -0.59018  -0.55265  -0.52143  -0.50049  -0.41764
  Beta  occ. eigenvalues --   -0.41357
  Beta virt. eigenvalues --   -0.06400   0.00975   0.06254   0.07136   0.09507
  Beta virt. eigenvalues --    0.10170   0.13988   0.18911   0.23354   0.24543
  Beta virt. eigenvalues --    0.24901   0.26068   0.28014   0.30252   0.32164

 Mulliken atomic charges:
              1
     1  S    0.556465
     2  O   -0.713415
     3  O   -0.320102
     4  H    0.477053
 Sum of Mulliken atomic charges =   0.00000

 Dipole moment (field-independent basis, Debye):
    X=             -0.1776    Y=             -0.5543    Z=              0.6113  Tot=              0.8441
 Quadrupole moment (field-independent basis, Debye-Ang):
   XX=            -27.5629   YY=            -21.1864   ZZ=            -23.6918
   XY=              3.1276   XZ=              0.7300   YZ=              0.9695

 Normal termination of Gaussian 09 at Thu Aug 21 00:36:55 2025.
