 Gaussian 09, Revision C.01,
 Gaussian 09:  EM64L-G09RevC.01 23-Sep-2011

 -----------------------
 #sp wB97XD/6-311+G(3df)
 -----------------------

 99/4=131072,5=1,9=1/99;
 ---------------------
 Optimizacion del hoso
 ---------------------
 Charge =  0 Multiplicity = 2

                         Standard orientation:
 ---------------------------------------------------------------------
 Center     Atomic      Atomic             Coordinates (Angstroms)
 Number     Number       Type             X           Y           Z
 ---------------------------------------------------------------------
      1         16           0       -0.088638   -0.453142    0.015901
      2          8           0        1.229284    0.266842   -0.043094
      3          8           0       -1.202904    0.489724   -0.017495
      4          1           0        1.207170    1.197740    0.230288
 ---------------------------------------------------------------------

 SCF Done:  E(UwB97XD) =  -549.212109623     A.U. after   15 cycles

 The electronic state is 2-A.
 Alpha  occ. eigenvalues --  -89.13651 -19.33285 -19.26739  -8.16559  -6.11506
 Alpha  occ. eigenvalues --   -6.11246  -6.10853  -1.26383  -1.14878  -0.82044
 Alpha  occ. eigenvalues --   -0.64007  -0.58959  -0.58488  -0.49307  -0.47473
 Alpha  occ. eigenvalues --   -0.41949  -0.29157
 Alpha virt. eigenvalues --    0.05241   0.07558   0.08115   0.09392   0.13023
 Alpha virt. eigenvalues --    0.14468   0.19065   0.22175   0.24270   0.25329
 Alpha virt. eigenvalues --    0.26923   0.28403   0.30392   0.32815   0.33429

  Beta  occ. eigenvalues --  -89.13267 -19.33001 -19.25904  -8.16212  -6.11275
  Beta  occ. eigenvalues --   -6.10646  -6.10006  -1.25468  -1.13206  -0.80339
  Beta  occ. eigenvalues --   -0.62325  -0.58074  -0.55596  -0.47228  -0.43406
  Beta  occ. eigenvalues --   -0.40630
  Beta virt. eigenvalues --   -0.02231   0.05525   0.07920   0.08494   0.10014
  Beta virt. eigenvalues --    0.13824   0.15545   0.19497   0.22430   0.24584
  Beta virt. eigenvalues --    0.25557   0.27434   0.28801   0.30691   0.32957

 Mulliken atomic charges:
              1
     1  S    0.453685
     2  O   -0.540323
     3  O   -0.415773
     4  H    0.502411
 Sum of Mulliken atomic charges =   0.00000

 Dipole moment (field-independent basis, Debye):
    X=              2.1150    Y=              0.5362    Z=              0.4828  Tot=              2.2347
 Quadrupole moment (field-independent basis, Debye-Ang):
   XX=            -26.0964   YY=            -21.0572   ZZ=            -23.5500
   XY=              3.5911   XZ=              0.6597   YZ=              0.7795

 Normal termination of Gaussian 09 at Thu Aug 21 00:40:03 2025.
