 Gaussian 09, Revision C.01,
 Gaussian 09:  EM64L-G09RevC.01 23-Sep-2011

 -----------------------
 #sp wB97XD/6-311+G(3df)
 -----------------------

 99/4=131072,5=1,9=1/99;
 ---------------------
 Optimizacion del hoso
 ---------------------
 Charge =  0 Multiplicity = 2

                         Standard orientation:
 ---------------------------------------------------------------------
 Center     Atomic      Atomic             Coordinates (Angstroms)
 Number     Number       Type             X           Y           Z
 ---------------------------------------------------------------------
      1         16           0       -0.164115   -0.473958    0.014844
      2          8           0        1.304648    0.228569   -0.041918
      3          8           0       -1.157767    0.574030   -0.016031
      4          1           0        1.450794    1.162528    0.226089
 ---------------------------------------------------------------------

 SCF Done:  E(UwB97XD) =  -549.217199888     A.U. after   15 cycles

 The electronic state is 2-A.
 Alpha  occ. eigenvalues --  -89.14879 -19.30906 -19.27949  -8.17599  -6.12556
 Alpha  occ. eigenvalues --   -6.12284  -6.11927  -1.21886  -1.14443  -0.80330
 Alpha  occ. eigenvalues --   -0.63071  -0.56798  -0.56122  -0.49734  -0.46696
 Alpha  occ. eigenvalues --   -0.42330  -0.30523
 Alpha virt. eigenvalues --    0.04479   0.06803   0.07840   0.09458   0.11965
 Alpha virt. eigenvalues --    0.13616   0.18371   0.23050   0.24609   0.25665
 Alpha virt. eigenvalues --    0.26790   0.28692   0.29956   0.32799   0.33282

  Beta  occ. eigenvalues --  -89.14496 -19.30665 -19.27074  -8.17258  -6.12330
  Beta  occ. eigenvalues --   -6.11719  -6.11054  -1.20578  -1.13177  -0.78158
  Beta  occ. eigenvalues --   -0.61616  -0.55593  -0.52734  -0.47904  -0.43186
  Beta  occ. eigenvalues --   -0.41205
  Beta virt. eigenvalues --   -0.03484   0.05003   0.07134   0.08267   0.10083
  Beta virt. eigenvalues --    0.12651   0.14592   0.18702   0.23300   0.24930
  Beta virt. eigenvalues --    0.25855   0.27438   0.28988   0.30314   0.32959

 Mulliken atomic charges:
              1
     1  S    0.500738
     2  O   -0.622309
     3  O   -0.368815
     4  H    0.490386
 Sum of Mulliken atomic charges =   0.00000

 Dipole moment (field-independent basis, Debye):
    X=              1.4370    Y=              0.1236    Z=              0.5066  Tot=              1.5287
 Quadrupole moment (field-independent basis, Debye-Ang):
   XX=            -25.5707   YY=            -21.0646   ZZ=            -23.6301
   XY=              4.2184   XZ=              0.7902   YZ=              0.7425

 Normal termination of Gaussian 09 at Wed Aug 20 22:59:59 2025.
