 Gaussian 09, Revision C.01,
 Gaussian 09:  EM64L-G09RevC.01 23-Sep-2011

 -----------------------
 #sp wB97XD/6-311+G(3df)
 -----------------------

 99/4=131072,5=1,9=1/99;
 ---------------------
 Optimizacion del hoso
 ---------------------
 Charge =  0 Multiplicity = 2

                         Standard orientation:
 ---------------------------------------------------------------------
 Center     Atomic      Atomic             Coordinates (Angstroms)
 Number     Number       Type             X           Y           Z
 ---------------------------------------------------------------------
      1         16           0       -0.144230   -0.508843    0.019207
      2          8           0        1.259617    0.280188   -0.056741
      3          8           0       -1.108778    0.593584   -0.025720
      4          1           0        1.100955    1.151307    0.352380
 ---------------------------------------------------------------------

 SCF Done:  E(UwB97XD) =  -549.218155295     A.U. after   15 cycles

 The electronic state is 2-A.
 Alpha  occ. eigenvalues --  -89.15123 -19.31500 -19.27965  -8.17899  -6.12827
 Alpha  occ. eigenvalues --   -6.12596  -6.12234  -1.23018  -1.14124  -0.79804
 Alpha  occ. eigenvalues --   -0.63193  -0.57743  -0.56659  -0.50642  -0.46539
 Alpha  occ. eigenvalues --   -0.42047  -0.31356
 Alpha virt. eigenvalues --    0.04481   0.06488   0.07326   0.09298   0.11975
 Alpha virt. eigenvalues --    0.13778   0.19227   0.22475   0.24796   0.25028
 Alpha virt. eigenvalues --    0.26066   0.28034   0.30044   0.32575   0.33070

  Beta  occ. eigenvalues --  -89.14742 -19.31289 -19.27077  -8.17558  -6.12601
  Beta  occ. eigenvalues --   -6.12026  -6.11372  -1.21939  -1.12653  -0.77450
  Beta  occ. eigenvalues --   -0.61832  -0.56921  -0.53552  -0.48332  -0.43025
  Beta  occ. eigenvalues --   -0.40951
  Beta virt. eigenvalues --   -0.04297   0.05042   0.06802   0.07781   0.09937
  Beta virt. eigenvalues --    0.12501   0.14912   0.19679   0.22670   0.25092
  Beta virt. eigenvalues --    0.25246   0.26401   0.28477   0.30364   0.32786

 Mulliken atomic charges:
              1
     1  S    0.510424
     2  O   -0.611976
     3  O   -0.394826
     4  H    0.496377
 Sum of Mulliken atomic charges =   0.00000

 Dipole moment (field-independent basis, Debye):
    X=              1.0935    Y=             -0.2696    Z=              0.7012  Tot=              1.3267
 Quadrupole moment (field-independent basis, Debye-Ang):
   XX=            -26.7287   YY=            -21.2092   ZZ=            -23.3975
   XY=              3.0659   XZ=              0.8232   YZ=              1.1065

 Normal termination of Gaussian 09 at Thu Aug 21 00:36:00 2025.
