 Gaussian 09, Revision C.01,
 Gaussian 09:  EM64L-G09RevC.01 23-Sep-2011

 -----------------------
 #sp wB97XD/6-311+G(3df)
 -----------------------

 99/4=131072,5=1,9=1/99;
 ---------------------
 Optimizacion del hoso
 ---------------------
 Charge =  0 Multiplicity = 2

                         Standard orientation:
 ---------------------------------------------------------------------
 Center     Atomic      Atomic             Coordinates (Angstroms)
 Number     Number       Type             X           Y           Z
 ---------------------------------------------------------------------
      1         16           0       -0.157754   -0.474083    0.015230
      2          8           0        1.306047    0.235576   -0.042768
      3          8           0       -1.164833    0.566919   -0.016998
      4          1           0        1.394348    1.165370    0.234444
 ---------------------------------------------------------------------

 SCF Done:  E(UwB97XD) =  -549.219008314     A.U. after   15 cycles

 The electronic state is 2-A.
 Alpha  occ. eigenvalues --  -89.14881 -19.31112 -19.28039  -8.17609  -6.12559
 Alpha  occ. eigenvalues --   -6.12296  -6.11938  -1.22019  -1.14653  -0.80353
 Alpha  occ. eigenvalues --   -0.63143  -0.56900  -0.56260  -0.49991  -0.46832
 Alpha  occ. eigenvalues --   -0.42376  -0.30624
 Alpha virt. eigenvalues --    0.04668   0.06786   0.07783   0.09436   0.11963
 Alpha virt. eigenvalues --    0.13549   0.18610   0.22910   0.24598   0.25503
 Alpha virt. eigenvalues --    0.26695   0.28561   0.29991   0.32733   0.33130

  Beta  occ. eigenvalues --  -89.14497 -19.30871 -19.27161  -8.17266  -6.12333
  Beta  occ. eigenvalues --   -6.11730  -6.11064  -1.20762  -1.13331  -0.78167
  Beta  occ. eigenvalues --   -0.61704  -0.55834  -0.52838  -0.48113  -0.43270
  Beta  occ. eigenvalues --   -0.41227
  Beta virt. eigenvalues --   -0.03575   0.05178   0.07119   0.08216   0.10055
  Beta virt. eigenvalues --    0.12706   0.14484   0.18918   0.23162   0.24919
  Beta virt. eigenvalues --    0.25697   0.27295   0.28874   0.30339   0.32855

 Mulliken atomic charges:
              1
     1  S    0.503189
     2  O   -0.622045
     3  O   -0.372578
     4  H    0.491434
 Sum of Mulliken atomic charges =   0.00000

 Dipole moment (field-independent basis, Debye):
    X=              1.3982    Y=              0.1167    Z=              0.5162  Tot=              1.4950
 Quadrupole moment (field-independent basis, Debye-Ang):
   XX=            -25.8586   YY=            -21.0539   ZZ=            -23.6141
   XY=              4.0155   XZ=              0.7725   YZ=              0.7709

 Normal termination of Gaussian 09 at Wed Aug 20 23:00:04 2025.
