 Gaussian 09, Revision C.01,
 Gaussian 09:  EM64L-G09RevC.01 23-Sep-2011

 -----------------------
 #sp wB97XD/6-311+G(3df)
 -----------------------

 99/4=131072,5=1,9=1/99;
 ---------------------
 Optimizacion del hoso
 ---------------------
 Charge =  0 Multiplicity = 2

                         Standard orientation:
 ---------------------------------------------------------------------
 Center     Atomic      Atomic             Coordinates (Angstroms)
 Number     Number       Type             X           Y           Z
 ---------------------------------------------------------------------
      1         16           0       -0.142539   -0.500212    0.018577
      2          8           0        1.272031    0.274819   -0.053972
      3          8           0       -1.128393    0.581090   -0.024302
      4          1           0        1.131516    1.156113    0.328957
 ---------------------------------------------------------------------

 SCF Done:  E(UwB97XD) =  -549.219577776     A.U. after   15 cycles

 The electronic state is 2-A.
 Alpha  occ. eigenvalues --  -89.15060 -19.31578 -19.28051  -8.17830  -6.12760
 Alpha  occ. eigenvalues --   -6.12527  -6.12165  -1.22920  -1.14394  -0.79888
 Alpha  occ. eigenvalues --   -0.63247  -0.57679  -0.56657  -0.50637  -0.46700
 Alpha  occ. eigenvalues --   -0.42205  -0.31226
 Alpha virt. eigenvalues --    0.04681   0.06546   0.07402   0.09315   0.12028
 Alpha virt. eigenvalues --    0.13611   0.19218   0.22473   0.24743   0.25001
 Alpha virt. eigenvalues --    0.26161   0.28048   0.30085   0.32553   0.33033

  Beta  occ. eigenvalues --  -89.14678 -19.31359 -19.27164  -8.17489  -6.12534
  Beta  occ. eigenvalues --   -6.11957  -6.11299  -1.21832  -1.12922  -0.77562
  Beta  occ. eigenvalues --   -0.61891  -0.56855  -0.53473  -0.48392  -0.43144
  Beta  occ. eigenvalues --   -0.41083
  Beta virt. eigenvalues --   -0.04164   0.05215   0.06871   0.07854   0.09946
  Beta virt. eigenvalues --    0.12619   0.14697   0.19626   0.22687   0.25057
  Beta virt. eigenvalues --    0.25204   0.26518   0.28480   0.30401   0.32754

 Mulliken atomic charges:
              1
     1  S    0.509149
     2  O   -0.613577
     3  O   -0.391496
     4  H    0.495925
 Sum of Mulliken atomic charges =   0.00000

 Dipole moment (field-independent basis, Debye):
    X=              1.1452    Y=             -0.1787    Z=              0.6620  Tot=              1.3348
 Quadrupole moment (field-independent basis, Debye-Ang):
   XX=            -26.6980   YY=            -21.1754   ZZ=            -23.4451
   XY=              3.1443   XZ=              0.7971   YZ=              1.0450

 Normal termination of Gaussian 09 at Thu Aug 21 00:36:00 2025.
