 Gaussian 09, Revision C.01,
 Gaussian 09:  EM64L-G09RevC.01 23-Sep-2011

 -----------------------
 #sp wB97XD/6-311+G(3df)
 -----------------------

 99/4=131072,5=1,9=1/99;
 ---------------------
 Optimizacion del hoso
 ---------------------
 Charge =  0 Multiplicity = 2

                         Standard orientation:
 ---------------------------------------------------------------------
 Center     Atomic      Atomic             Coordinates (Angstroms)
 Number     Number       Type             X           Y           Z
 ---------------------------------------------------------------------
      1         16           0       -0.137928   -0.473026    0.013202
      2          8           0        1.309306    0.267344   -0.039870
      3          8           0       -1.187148    0.544145   -0.016256
      4          1           0        1.229589    1.076508    0.237769
 ---------------------------------------------------------------------

 SCF Done:  E(UwB97XD) =  -549.207573856     A.U. after   15 cycles

 The electronic state is 2-A.
 Alpha  occ. eigenvalues --  -89.15122 -19.30892 -19.28549  -8.17873  -6.12809
 Alpha  occ. eigenvalues --   -6.12562  -6.12207  -1.23973  -1.16167  -0.81660
 Alpha  occ. eigenvalues --   -0.64280  -0.57650  -0.56819  -0.50948  -0.47513
 Alpha  occ. eigenvalues --   -0.42740  -0.31181
 Alpha virt. eigenvalues --    0.05414   0.06622   0.07506   0.09345   0.11830
 Alpha virt. eigenvalues --    0.13922   0.20321   0.22962   0.24537   0.24931
 Alpha virt. eigenvalues --    0.26317   0.28223   0.30459   0.32492   0.32805

  Beta  occ. eigenvalues --  -89.14737 -19.30658 -19.27654  -8.17530  -6.12581
  Beta  occ. eigenvalues --   -6.11999  -6.11324  -1.23025  -1.14537  -0.79528
  Beta  occ. eigenvalues --   -0.62820  -0.56843  -0.53431  -0.48911  -0.43785
  Beta  occ. eigenvalues --   -0.41514
  Beta virt. eigenvalues --   -0.04052   0.05951   0.06979   0.07969   0.09945
  Beta virt. eigenvalues --    0.12609   0.14866   0.20450   0.23238   0.24867
  Beta virt. eigenvalues --    0.25157   0.26781   0.28581   0.30745   0.32694

 Mulliken atomic charges:
              1
     1  S    0.509151
     2  O   -0.637519
     3  O   -0.375621
     4  H    0.503989
 Sum of Mulliken atomic charges =   0.00000

 Dipole moment (field-independent basis, Debye):
    X=              1.2251    Y=             -0.0687    Z=              0.4983  Tot=              1.3244
 Quadrupole moment (field-independent basis, Debye-Ang):
   XX=            -26.5203   YY=            -21.3419   ZZ=            -23.4708
   XY=              3.1843   XZ=              0.6716   YZ=              0.7557

 Normal termination of Gaussian 09 at Thu Aug 21 00:36:09 2025.
