 Gaussian 09, Revision C.01,
 Gaussian 09:  EM64L-G09RevC.01 23-Sep-2011

 -----------------------
 #sp wB97XD/6-311+G(3df)
 -----------------------

 99/4=131072,5=1,9=1/99;
 ---------------------
 Optimizacion del hoso
 ---------------------
 Charge =  0 Multiplicity = 2

                         Standard orientation:
 ---------------------------------------------------------------------
 Center     Atomic      Atomic             Coordinates (Angstroms)
 Number     Number       Type             X           Y           Z
 ---------------------------------------------------------------------
      1         16           0       -0.126429   -0.473581    0.016956
      2          8           0        1.312791    0.270183   -0.046318
      3          8           0       -1.199130    0.531115   -0.022172
      4          1           0        1.113577    1.166923    0.276625
 ---------------------------------------------------------------------

 SCF Done:  E(UwB97XD) =  -549.220165027     A.U. after   15 cycles

 The electronic state is 2-A.
 Alpha  occ. eigenvalues --  -89.14952 -19.32318 -19.28526  -8.17714  -6.12633
 Alpha  occ. eigenvalues --   -6.12410  -6.12056  -1.22804  -1.14983  -0.79649
 Alpha  occ. eigenvalues --   -0.63424  -0.57820  -0.56709  -0.50754  -0.47318
 Alpha  occ. eigenvalues --   -0.42586  -0.31092
 Alpha virt. eigenvalues --    0.05053   0.06808   0.07505   0.09323   0.11526
 Alpha virt. eigenvalues --    0.13370   0.18990   0.22223   0.24401   0.24774
 Alpha virt. eigenvalues --    0.26237   0.27848   0.30448   0.32368   0.32808

  Beta  occ. eigenvalues --  -89.14565 -19.32070 -19.27639  -8.17368  -6.12403
  Beta  occ. eigenvalues --   -6.11848  -6.11166  -1.21730  -1.13436  -0.77294
  Beta  occ. eigenvalues --   -0.62209  -0.57049  -0.53346  -0.48679  -0.43523
  Beta  occ. eigenvalues --   -0.41346
  Beta virt. eigenvalues --   -0.04023   0.05494   0.07168   0.07970   0.09913
  Beta virt. eigenvalues --    0.12583   0.13973   0.19333   0.22422   0.24688
  Beta virt. eigenvalues --    0.24999   0.26624   0.28287   0.30722   0.32580

 Mulliken atomic charges:
              1
     1  S    0.504171
     2  O   -0.613524
     3  O   -0.387105
     4  H    0.496458
 Sum of Mulliken atomic charges =   0.00000

 Dipole moment (field-independent basis, Debye):
    X=              1.2316    Y=              0.0536    Z=              0.5503  Tot=              1.3500
 Quadrupole moment (field-independent basis, Debye-Ang):
   XX=            -27.0008   YY=            -21.1579   ZZ=            -23.5808
   XY=              2.9790   XZ=              0.6314   YZ=              0.8902

 Normal termination of Gaussian 09 at Wed Aug 20 22:59:58 2025.
