 Gaussian 09, Revision C.01,
 Gaussian 09:  EM64L-G09RevC.01 23-Sep-2011

 -----------------------
 #sp wB97XD/6-311+G(3df)
 -----------------------

 99/4=131072,5=1,9=1/99;
 ---------------------
 Optimizacion del hoso
 ---------------------
 Charge =  0 Multiplicity = 2

                         Standard orientation:
 ---------------------------------------------------------------------
 Center     Atomic      Atomic             Coordinates (Angstroms)
 Number     Number       Type             X           Y           Z
 ---------------------------------------------------------------------
      1         16           0       -0.185463   -0.431637    0.018105
      2          8           0        1.328021    0.196969   -0.045468
      3          8           0       -1.102369    0.528164   -0.024878
      4          1           0        1.162194    1.105134    0.273088
 ---------------------------------------------------------------------

 SCF Done:  E(UwB97XD) =  -549.193416359     A.U. after   15 cycles

 The electronic state is 2-A.
 Alpha  occ. eigenvalues --  -89.13205 -19.30937 -19.28227  -8.16485  -6.11361
 Alpha  occ. eigenvalues --   -6.11142  -6.10795  -1.27391  -1.16646  -0.77490
 Alpha  occ. eigenvalues --   -0.62714  -0.60043  -0.59261  -0.52491  -0.47461
 Alpha  occ. eigenvalues --   -0.43311  -0.29013
 Alpha virt. eigenvalues --    0.05723   0.07002   0.08324   0.09301   0.12225
 Alpha virt. eigenvalues --    0.14799   0.19336   0.22414   0.24660   0.25211
 Alpha virt. eigenvalues --    0.26441   0.27839   0.30717   0.32303   0.32729

  Beta  occ. eigenvalues --  -89.12818 -19.30688 -19.27466  -8.16138  -6.11127
  Beta  occ. eigenvalues --   -6.10585  -6.09898  -1.25964  -1.15822  -0.75059
  Beta  occ. eigenvalues --   -0.61453  -0.59132  -0.55510  -0.50862  -0.44897
  Beta  occ. eigenvalues --   -0.41924
  Beta virt. eigenvalues --   -0.01886   0.06070   0.07513   0.08701   0.10120
  Beta virt. eigenvalues --    0.13381   0.15496   0.19761   0.22591   0.25017
  Beta virt. eigenvalues --    0.25419   0.26811   0.28236   0.30969   0.32579

 Mulliken atomic charges:
              1
     1  S    0.480546
     2  O   -0.644935
     3  O   -0.320549
     4  H    0.484938
 Sum of Mulliken atomic charges =   0.00000

 Dipole moment (field-independent basis, Debye):
    X=              0.5310    Y=              0.3582    Z=              0.5308  Tot=              0.8319
 Quadrupole moment (field-independent basis, Debye-Ang):
   XX=            -26.3028   YY=            -21.4994   ZZ=            -23.4017
   XY=              2.9949   XZ=              0.6333   YZ=              0.8608

 Normal termination of Gaussian 09 at Fri Aug 21 00:31:55 2020.
