 Gaussian 09, Revision C.01,
 Gaussian 09:  EM64L-G09RevC.01 23-Sep-2011

 -----------------------
 #sp wB97XD/6-311+G(3df)
 -----------------------

 99/4=131072,5=1,9=1/99;
 ---------------------
 Optimizacion del hoso
 ---------------------
 Charge =  0 Multiplicity = 2

                         Standard orientation:
 ---------------------------------------------------------------------
 Center     Atomic      Atomic             Coordinates (Angstroms)
 Number     Number       Type             X           Y           Z
 ---------------------------------------------------------------------
      1         16           0       -0.137962   -0.465196    0.015420
      2          8           0        1.323054    0.249777   -0.041863
      3          8           0       -1.204313    0.534036   -0.018596
      4          1           0        1.257469    1.172632    0.236963
 ---------------------------------------------------------------------

 SCF Done:  E(UwB97XD) =  -549.221111438     A.U. after   15 cycles

 The electronic state is 2-A.
 Alpha  occ. eigenvalues --  -89.14863 -19.31875 -19.28422  -8.17606  -6.12537
 Alpha  occ. eigenvalues --   -6.12297  -6.11943  -1.22311  -1.15099  -0.80105
 Alpha  occ. eigenvalues --   -0.63312  -0.57287  -0.56518  -0.50513  -0.47302
 Alpha  occ. eigenvalues --   -0.42553  -0.30836
 Alpha virt. eigenvalues --    0.05004   0.06870   0.07675   0.09390   0.11562
 Alpha virt. eigenvalues --    0.13444   0.18959   0.22458   0.24477   0.25012
 Alpha virt. eigenvalues --    0.26482   0.28173   0.30290   0.32468   0.32852

  Beta  occ. eigenvalues --  -89.14476 -19.31624 -19.27538  -8.17261  -6.12308
  Beta  occ. eigenvalues --   -6.11735  -6.11055  -1.21164  -1.13627  -0.77846
  Beta  occ. eigenvalues --   -0.61988  -0.56481  -0.53018  -0.48592  -0.43532
  Beta  occ. eigenvalues --   -0.41315
  Beta virt. eigenvalues --   -0.03766   0.05461   0.07221   0.08130   0.09977
  Beta virt. eigenvalues --    0.12611   0.14058   0.19235   0.22691   0.24807
  Beta virt. eigenvalues --    0.25199   0.26990   0.28538   0.30594   0.32619

 Mulliken atomic charges:
              1
     1  S    0.504040
     2  O   -0.619219
     3  O   -0.378716
     4  H    0.493895
 Sum of Mulliken atomic charges =   0.00000

 Dipole moment (field-independent basis, Debye):
    X=              1.3403    Y=              0.1685    Z=              0.4967  Tot=              1.4392
 Quadrupole moment (field-independent basis, Debye-Ang):
   XX=            -26.5672   YY=            -21.0597   ZZ=            -23.6308
   XY=              3.4798   XZ=              0.6571   YZ=              0.7788

 Normal termination of Gaussian 09 at Thu Aug 21 01:11:05 2025.
