 Gaussian 09, Revision C.01,
 Gaussian 09:  EM64L-G09RevC.01 23-Sep-2011

 -----------------------
 #sp wB97XD/6-311+G(3df)
 -----------------------

 99/4=131072,5=1,9=1/99;
 ---------------------
 Optimizacion del hoso
 ---------------------
 Charge =  0 Multiplicity = 2

                         Standard orientation:
 ---------------------------------------------------------------------
 Center     Atomic      Atomic             Coordinates (Angstroms)
 Number     Number       Type             X           Y           Z
 ---------------------------------------------------------------------
      1         16           0       -0.137470   -0.472526    0.011741
      2          8           0        1.308874    0.272758   -0.037273
      3          8           0       -1.187907    0.543477   -0.014475
      4          1           0        1.231795    1.030544    0.226127
 ---------------------------------------------------------------------

 SCF Done:  E(UwB97XD) =  -549.185850094     A.U. after   15 cycles

 The electronic state is 2-A.
 Alpha  occ. eigenvalues --  -89.15240 -19.30338 -19.28672  -8.17991  -6.12929
 Alpha  occ. eigenvalues --   -6.12677  -6.12323  -1.25045  -1.16752  -0.82509
 Alpha  occ. eigenvalues --   -0.64716  -0.57772  -0.56948  -0.51138  -0.47699
 Alpha  occ. eigenvalues --   -0.42867  -0.31324
 Alpha virt. eigenvalues --    0.05523   0.06539   0.07451   0.09329   0.11785
 Alpha virt. eigenvalues --    0.14078   0.20644   0.23280   0.24540   0.24975
 Alpha virt. eigenvalues --    0.26277   0.28295   0.30730   0.32505   0.32772

  Beta  occ. eigenvalues --  -89.14855 -19.30108 -19.27772  -8.17647  -6.12701
  Beta  occ. eigenvalues --   -6.12116  -6.11439  -1.24193  -1.15039  -0.80440
  Beta  occ. eigenvalues --   -0.63193  -0.56969  -0.53578  -0.49090  -0.43961
  Beta  occ. eigenvalues --   -0.41634
  Beta virt. eigenvalues --   -0.04165   0.06091   0.06901   0.07917   0.09930
  Beta virt. eigenvalues --    0.12520   0.15056   0.20748   0.23533   0.24881
  Beta virt. eigenvalues --    0.25230   0.26770   0.28628   0.30989   0.32742

 Mulliken atomic charges:
              1
     1  S    0.508814
     2  O   -0.641401
     3  O   -0.372258
     4  H    0.504846
 Sum of Mulliken atomic charges =   0.00000

 Dipole moment (field-independent basis, Debye):
    X=              1.1856    Y=             -0.1455    Z=              0.4776  Tot=              1.2864
 Quadrupole moment (field-independent basis, Debye-Ang):
   XX=            -26.4804   YY=            -21.4501   ZZ=            -23.4071
   XY=              3.0777   XZ=              0.6579   YZ=              0.7112

 Normal termination of Gaussian 09 at Thu Aug 21 00:36:08 2025.
