 Gaussian 09, Revision C.01,
 Gaussian 09:  EM64L-G09RevC.01 23-Sep-2011

 -----------------------
 #sp wB97XD/6-311+G(3df)
 -----------------------

 99/4=131072,5=1,9=1/99;
 ---------------------
 Optimizacion del hoso
 ---------------------
 Charge =  0 Multiplicity = 2

                         Standard orientation:
 ---------------------------------------------------------------------
 Center     Atomic      Atomic             Coordinates (Angstroms)
 Number     Number       Type             X           Y           Z
 ---------------------------------------------------------------------
      1         16           0       -0.138843   -0.474008    0.016308
      2          8           0        1.310132    0.256471   -0.045040
      3          8           0       -1.185636    0.545439   -0.020037
      4          1           0        1.225521    1.168845    0.259681
 ---------------------------------------------------------------------

 SCF Done:  E(UwB97XD) =  -549.221275767     A.U. after   15 cycles

 The electronic state is 2-A.
 Alpha  occ. eigenvalues --  -89.14903 -19.31802 -19.28325  -8.17654  -6.12585
 Alpha  occ. eigenvalues --   -6.12347  -6.11990  -1.22496  -1.14979  -0.80074
 Alpha  occ. eigenvalues --   -0.63316  -0.57404  -0.56571  -0.50559  -0.47162
 Alpha  occ. eigenvalues --   -0.42503  -0.30913
 Alpha virt. eigenvalues --    0.05000   0.06777   0.07615   0.09371   0.11798
 Alpha virt. eigenvalues --    0.13392   0.19046   0.22471   0.24535   0.25005
 Alpha virt. eigenvalues --    0.26414   0.28129   0.30235   0.32488   0.32901

  Beta  occ. eigenvalues --  -89.14517 -19.31559 -19.27440  -8.17310  -6.12357
  Beta  occ. eigenvalues --   -6.11782  -6.11108  -1.21367  -1.13505  -0.77806
  Beta  occ. eigenvalues --   -0.61982  -0.56590  -0.53151  -0.48549  -0.43454
  Beta  occ. eigenvalues --   -0.41293
  Beta virt. eigenvalues --   -0.03845   0.05466   0.07126   0.08066   0.09970
  Beta virt. eigenvalues --    0.12749   0.14125   0.19346   0.22707   0.24862
  Beta virt. eigenvalues --    0.25196   0.26874   0.28515   0.30541   0.32651

 Mulliken atomic charges:
              1
     1  S    0.505690
     2  O   -0.618217
     3  O   -0.381986
     4  H    0.494513
 Sum of Mulliken atomic charges =   0.00000

 Dipole moment (field-independent basis, Debye):
    X=              1.2932    Y=              0.0847    Z=              0.5393  Tot=              1.4037
 Quadrupole moment (field-independent basis, Debye-Ang):
   XX=            -26.6011   YY=            -21.0856   ZZ=            -23.5851
   XY=              3.3938   XZ=              0.6976   YZ=              0.8479

 Normal termination of Gaussian 09 at Wed Aug 20 22:59:58 2025.
