 Gaussian 09, Revision C.01,
 Gaussian 09:  EM64L-G09RevC.01 23-Sep-2011

 -----------------------
 #sp wB97XD/6-311+G(3df)
 -----------------------

 99/4=131072,5=1,9=1/99;
 ---------------------
 Optimizacion del hoso
 ---------------------
 Charge =  0 Multiplicity = 2

                         Standard orientation:
 ---------------------------------------------------------------------
 Center     Atomic      Atomic             Coordinates (Angstroms)
 Number     Number       Type             X           Y           Z
 ---------------------------------------------------------------------
      1         16           0       -0.040514   -0.429117    0.015353
      2          8           0        1.149849    0.270859   -0.040741
      3          8           0       -1.217428    0.434080   -0.015028
      4          1           0        1.188849    1.226357    0.200495
 ---------------------------------------------------------------------

 SCF Done:  E(UwB97XD) =  -549.173325379     A.U. after   15 cycles

 The electronic state is 2-A.
 Alpha  occ. eigenvalues --  -89.12085 -19.34895 -19.25089  -8.15332  -6.10302
 Alpha  occ. eigenvalues --   -6.09986  -6.09560  -1.31957  -1.13908  -0.84718
 Alpha  occ. eigenvalues --   -0.64599  -0.61967  -0.60742  -0.48070  -0.46584
 Alpha  occ. eigenvalues --   -0.40962  -0.27122
 Alpha virt. eigenvalues --    0.04638   0.07825   0.08680   0.09326   0.12482
 Alpha virt. eigenvalues --    0.16885   0.19194   0.22100   0.23799   0.25680
 Alpha virt. eigenvalues --    0.27474   0.28631   0.30674   0.33148   0.33874

  Beta  occ. eigenvalues --  -89.11705 -19.34580 -19.24310  -8.14988  -6.10075
  Beta  occ. eigenvalues --   -6.09355  -6.08755  -1.31089  -1.12257  -0.83411
  Beta  occ. eigenvalues --   -0.63090  -0.59798  -0.58907  -0.45691  -0.42792
  Beta  occ. eigenvalues --   -0.39558
  Beta virt. eigenvalues --   -0.00382   0.04928   0.08190   0.09015   0.09986
  Beta virt. eigenvalues --    0.13215   0.17877   0.19852   0.22370   0.24135
  Beta virt. eigenvalues --    0.25961   0.28048   0.29068   0.30962   0.33303

 Mulliken atomic charges:
              1
     1  S    0.383990
     2  O   -0.443851
     3  O   -0.449688
     4  H    0.509549
 Sum of Mulliken atomic charges =   0.00000

 Dipole moment (field-independent basis, Debye):
    X=              2.9737    Y=              1.0631    Z=              0.4040  Tot=              3.1837
 Quadrupole moment (field-independent basis, Debye-Ang):
   XX=            -25.5821   YY=            -21.0436   ZZ=            -23.5441
   XY=              3.8137   XZ=              0.5983   YZ=              0.7077

 Normal termination of Gaussian 09 at Wed Aug 20 23:00:05 2025.
