 Gaussian 09, Revision C.01,
 Gaussian 09:  EM64L-G09RevC.01 23-Sep-2011

 -----------------------
 #sp wB97XD/6-311+G(3df)
 -----------------------

 99/4=131072,5=1,9=1/99;
 ---------------------
 Optimizacion del hoso
 ---------------------
 Charge =  0 Multiplicity = 2

                         Standard orientation:
 ---------------------------------------------------------------------
 Center     Atomic      Atomic             Coordinates (Angstroms)
 Number     Number       Type             X           Y           Z
 ---------------------------------------------------------------------
      1         16           0       -0.137217   -0.456356    0.014461
      2          8           0        1.336061    0.242858   -0.038592
      3          8           0       -1.222835    0.522826   -0.017138
      4          1           0        1.289662    1.176233    0.214457
 ---------------------------------------------------------------------

 SCF Done:  E(UwB97XD) =  -549.220617617     A.U. after   15 cycles

 The electronic state is 2-A.
 Alpha  occ. eigenvalues --  -89.14830 -19.31947 -19.28523  -8.17564  -6.12494
 Alpha  occ. eigenvalues --   -6.12254  -6.11903  -1.22103  -1.15182  -0.80119
 Alpha  occ. eigenvalues --   -0.63296  -0.57157  -0.56453  -0.50459  -0.47429
 Alpha  occ. eigenvalues --   -0.42582  -0.30774
 Alpha virt. eigenvalues --    0.04958   0.06966   0.07724   0.09411   0.11274
 Alpha virt. eigenvalues --    0.13534   0.18867   0.22435   0.24428   0.25020
 Alpha virt. eigenvalues --    0.26540   0.28225   0.30341   0.32453   0.32801

  Beta  occ. eigenvalues --  -89.14443 -19.31689 -19.27639  -8.17218  -6.12265
  Beta  occ. eigenvalues --   -6.11695  -6.11008  -1.20937  -1.13712  -0.77864
  Beta  occ. eigenvalues --   -0.61984  -0.56362  -0.52873  -0.48629  -0.43594
  Beta  occ. eigenvalues --   -0.41318
  Beta virt. eigenvalues --   -0.03703   0.05417   0.07314   0.08188   0.09984
  Beta virt. eigenvalues --    0.12360   0.14072   0.19126   0.22659   0.24762
  Beta virt. eigenvalues --    0.25202   0.27102   0.28566   0.30646   0.32591

 Mulliken atomic charges:
              1
     1  S    0.501821
     2  O   -0.619676
     3  O   -0.375270
     4  H    0.493125
 Sum of Mulliken atomic charges =   0.00000

 Dipole moment (field-independent basis, Debye):
    X=              1.3861    Y=              0.2498    Z=              0.4535  Tot=              1.4796
 Quadrupole moment (field-independent basis, Debye-Ang):
   XX=            -26.5325   YY=            -21.0360   ZZ=            -23.6761
   XY=              3.5664   XZ=              0.6131   YZ=              0.7086

 Normal termination of Gaussian 09 at Thu Aug 21 01:11:04 2025.
