 Gaussian 09, Revision C.01,
 Gaussian 09:  EM64L-G09RevC.01 23-Sep-2011

 -----------------------
 #sp wB97XD/6-311+G(3df)
 -----------------------

 99/4=131072,5=1,9=1/99;
 ---------------------
 Optimizacion del hoso
 ---------------------
 Charge =  0 Multiplicity = 2

                         Standard orientation:
 ---------------------------------------------------------------------
 Center     Atomic      Atomic             Coordinates (Angstroms)
 Number     Number       Type             X           Y           Z
 ---------------------------------------------------------------------
      1         16           0       -0.138875   -0.472755    0.018588
      2          8           0        1.309981    0.256609   -0.051994
      3          8           0       -1.187265    0.544538   -0.022613
      4          1           0        1.240272    1.154906    0.299457
 ---------------------------------------------------------------------

 SCF Done:  E(UwB97XD) =  -549.221274587     A.U. after   15 cycles

 The electronic state is 2-A.
 Alpha  occ. eigenvalues --  -89.14884 -19.31807 -19.28334  -8.17634  -6.12565
 Alpha  occ. eigenvalues --   -6.12327  -6.11970  -1.22462  -1.14978  -0.80043
 Alpha  occ. eigenvalues --   -0.63354  -0.57410  -0.56494  -0.50630  -0.47026
 Alpha  occ. eigenvalues --   -0.42498  -0.30974
 Alpha virt. eigenvalues --    0.04963   0.06796   0.07639   0.09360   0.11844
 Alpha virt. eigenvalues --    0.13473   0.18955   0.22393   0.24570   0.25068
 Alpha virt. eigenvalues --    0.26356   0.28214   0.30149   0.32516   0.32885

  Beta  occ. eigenvalues --  -89.14500 -19.31573 -19.27443  -8.17290  -6.12337
  Beta  occ. eigenvalues --   -6.11763  -6.11091  -1.21334  -1.13506  -0.77770
  Beta  occ. eigenvalues --   -0.61990  -0.56549  -0.53231  -0.48422  -0.43479
  Beta  occ. eigenvalues --   -0.41279
  Beta virt. eigenvalues --   -0.03891   0.05422   0.07148   0.08084   0.09958
  Beta virt. eigenvalues --    0.12777   0.14235   0.19262   0.22626   0.24882
  Beta virt. eigenvalues --    0.25282   0.26774   0.28605   0.30500   0.32683

 Mulliken atomic charges:
              1
     1  S    0.503911
     2  O   -0.617446
     3  O   -0.380526
     4  H    0.494061
 Sum of Mulliken atomic charges =   0.00000

 Dipole moment (field-independent basis, Debye):
    X=              1.3136    Y=              0.0707    Z=              0.6217  Tot=              1.4551
 Quadrupole moment (field-independent basis, Debye-Ang):
   XX=            -26.5435   YY=            -21.1752   ZZ=            -23.5197
   XY=              3.3966   XZ=              0.8153   YZ=              0.9647

 Normal termination of Gaussian 09 at Thu Aug 21 00:35:58 2025.
