 Gaussian 09, Revision C.01,
 Gaussian 09:  EM64L-G09RevC.01 23-Sep-2011

 -----------------------
 #sp wB97XD/6-311+G(3df)
 -----------------------

 99/4=131072,5=1,9=1/99;
 ---------------------
 Optimizacion del hoso
 ---------------------
 Charge =  0 Multiplicity = 2

                         Standard orientation:
 ---------------------------------------------------------------------
 Center     Atomic      Atomic             Coordinates (Angstroms)
 Number     Number       Type             X           Y           Z
 ---------------------------------------------------------------------
      1         16           0       -0.138900   -0.468975    0.025141
      2          8           0        1.309397    0.256997   -0.073080
      3          8           0       -1.192245    0.541667   -0.029617
      4          1           0        1.285190    1.114277    0.419320
 ---------------------------------------------------------------------

 SCF Done:  E(UwB97XD) =  -549.220741769     A.U. after   15 cycles

 The electronic state is 2-A.
 Alpha  occ. eigenvalues --  -89.14797 -19.31948 -19.28353  -8.17544  -6.12471
 Alpha  occ. eigenvalues --   -6.12239  -6.11880  -1.22201  -1.14800  -0.79667
 Alpha  occ. eigenvalues --   -0.63316  -0.57396  -0.56233  -0.50824  -0.46516
 Alpha  occ. eigenvalues --   -0.42455  -0.31172
 Alpha virt. eigenvalues --    0.04709   0.06871   0.07723   0.09322   0.11955
 Alpha virt. eigenvalues --    0.13679   0.18390   0.22126   0.24663   0.25291
 Alpha virt. eigenvalues --    0.26246   0.28374   0.29787   0.32652   0.32843

  Beta  occ. eigenvalues --  -89.14415 -19.31746 -19.27440  -8.17202  -6.12243
  Beta  occ. eigenvalues --   -6.11675  -6.11011  -1.21051  -1.13357  -0.77343
  Beta  occ. eigenvalues --   -0.61888  -0.56392  -0.53460  -0.47971  -0.43527
  Beta  occ. eigenvalues --   -0.41205
  Beta virt. eigenvalues --   -0.04040   0.05143   0.07231   0.08147   0.09913
  Beta virt. eigenvalues --    0.12867   0.14487   0.18748   0.22324   0.24920
  Beta virt. eigenvalues --    0.25610   0.26550   0.28771   0.30269   0.32815

 Mulliken atomic charges:
              1
     1  S    0.496459
     2  O   -0.611355
     3  O   -0.375407
     4  H    0.490303
 Sum of Mulliken atomic charges =   0.00000

 Dipole moment (field-independent basis, Debye):
    X=              1.3832    Y=              0.0264    Z=              0.8655  Tot=              1.6319
 Quadrupole moment (field-independent basis, Debye-Ang):
   XX=            -26.3700   YY=            -21.4758   ZZ=            -23.2908
   XY=              3.3904   XZ=              1.1772   YZ=              1.2856

 Normal termination of Gaussian 09 at Thu Aug 21 00:36:00 2025.
