 Gaussian 09, Revision C.01,
 Gaussian 09:  EM64L-G09RevC.01 23-Sep-2011

 -----------------------
 #sp wB97XD/6-311+G(3df)
 -----------------------

 99/4=131072,5=1,9=1/99;
 ---------------------
 Optimizacion del hoso
 ---------------------
 Charge =  0 Multiplicity = 2

                         Standard orientation:
 ---------------------------------------------------------------------
 Center     Atomic      Atomic             Coordinates (Angstroms)
 Number     Number       Type             X           Y           Z
 ---------------------------------------------------------------------
      1         16           0       -0.064282   -0.441517    0.015648
      2          8           0        1.189353    0.269699   -0.041973
      3          8           0       -1.210532    0.461815   -0.016251
      4          1           0        1.197936    1.212153    0.215436
 ---------------------------------------------------------------------

 SCF Done:  E(UwB97XD) =  -549.197776891     A.U. after   15 cycles

 The electronic state is 2-A.
 Alpha  occ. eigenvalues --  -89.12904 -19.34084 -19.25918  -8.15951  -6.10903
 Alpha  occ. eigenvalues --   -6.10630  -6.10218  -1.29003  -1.14457  -0.83333
 Alpha  occ. eigenvalues --   -0.64185  -0.60114  -0.59856  -0.48689  -0.47150
 Alpha  occ. eigenvalues --   -0.41503  -0.28173
 Alpha virt. eigenvalues --    0.05017   0.07763   0.08397   0.09370   0.12801
 Alpha virt. eigenvalues --    0.15756   0.19110   0.22095   0.24055   0.25503
 Alpha virt. eigenvalues --    0.27198   0.28525   0.30510   0.32980   0.33671

  Beta  occ. eigenvalues --  -89.12522 -19.33783 -19.25110  -8.15605  -6.10674
  Beta  occ. eigenvalues --   -6.10012  -6.09393  -1.28117  -1.12781  -0.81850
  Beta  occ. eigenvalues --   -0.62493  -0.58890  -0.57297  -0.46479  -0.43152
  Beta  occ. eigenvalues --   -0.40140
  Beta virt. eigenvalues --   -0.01333   0.05292   0.08125   0.08748   0.10009
  Beta virt. eigenvalues --    0.13558   0.16839   0.19639   0.22358   0.24376
  Beta virt. eigenvalues --    0.25756   0.27740   0.28939   0.30803   0.33128

 Mulliken atomic charges:
              1
     1  S    0.420497
     2  O   -0.493901
     3  O   -0.432815
     4  H    0.506219
 Sum of Mulliken atomic charges =   0.00000

 Dipole moment (field-independent basis, Debye):
    X=              2.5416    Y=              0.7918    Z=              0.4467  Tot=              2.6993
 Quadrupole moment (field-independent basis, Debye-Ang):
   XX=            -25.8394   YY=            -21.0478   ZZ=            -23.5422
   XY=              3.7009   XZ=              0.6324   YZ=              0.7441

 Normal termination of Gaussian 09 at Thu Aug 21 00:39:59 2025.
