 Gaussian 09, Revision C.01,
 Gaussian 09:  EM64L-G09RevC.01 23-Sep-2011

 -----------------------
 #sp wB97XD/6-311+G(3df)
 -----------------------

 99/4=131072,5=1,9=1/99;
 ---------------------
 Optimizacion del hoso
 ---------------------
 Charge =  0 Multiplicity = 2

                         Standard orientation:
 ---------------------------------------------------------------------
 Center     Atomic      Atomic             Coordinates (Angstroms)
 Number     Number       Type             X           Y           Z
 ---------------------------------------------------------------------
      1         16           0       -0.068068   -0.526056    0.014281
      2          8           0        1.279782    0.343289   -0.043752
      3          8           0       -1.305493    0.549449   -0.014718
      4          1           0        1.294772    1.274986    0.239257
 ---------------------------------------------------------------------

 SCF Done:  E(UwB97XD) =  -549.194579141     A.U. after   17 cycles

 The electronic state is 2-A.
 Alpha  occ. eigenvalues --  -89.16075 -19.32663 -19.28698  -8.18589  -6.13574
 Alpha  occ. eigenvalues --   -6.13194  -6.12970  -1.21068  -1.09209  -0.82744
 Alpha  occ. eigenvalues --   -0.64155  -0.55772  -0.55198  -0.47999  -0.45785
 Alpha  occ. eigenvalues --   -0.40786  -0.32912
 Alpha virt. eigenvalues --    0.03138   0.05524   0.06994   0.09462   0.11239
 Alpha virt. eigenvalues --    0.12001   0.17617   0.22745   0.24296   0.24855
 Alpha virt. eigenvalues --    0.26227   0.28557   0.29375   0.32684   0.33256

  Beta  occ. eigenvalues --  -89.15721 -19.32439 -19.27603  -8.18273  -6.13370
  Beta  occ. eigenvalues --   -6.12791  -6.12039  -1.20325  -1.06715  -0.80674
  Beta  occ. eigenvalues --   -0.62749  -0.55058  -0.52482  -0.46200  -0.39923
  Beta  occ. eigenvalues --   -0.39454
  Beta virt. eigenvalues --   -0.05945   0.03716   0.06209   0.07257   0.09833
  Beta virt. eigenvalues --    0.12137   0.12268   0.17812   0.22974   0.24556
  Beta virt. eigenvalues --    0.25078   0.27071   0.28848   0.29728   0.32807

 Mulliken atomic charges:
              1
     1  S    0.506537
     2  O   -0.577395
     3  O   -0.431973
     4  H    0.502831
 Sum of Mulliken atomic charges =   0.00000

 Dipole moment (field-independent basis, Debye):
    X=              2.1342    Y=             -0.0307    Z=              0.5241  Tot=              2.1978
 Quadrupole moment (field-independent basis, Debye-Ang):
   XX=            -26.8579   YY=            -20.3918   ZZ=            -23.9307
   XY=              3.7192   XZ=              0.7612   YZ=              0.8294

 Normal termination of Gaussian 09 at Wed Aug 20 23:00:07 2025.
