 Gaussian 09, Revision C.01,
 Gaussian 09:  EM64L-G09RevC.01 23-Sep-2011

 -----------------------
 #sp wB97XD/6-311+G(3df)
 -----------------------

 99/4=131072,5=1,9=1/99;
 ---------------------
 Optimizacion del hoso
 ---------------------
 Charge =  0 Multiplicity = 2

                         Standard orientation:
 ---------------------------------------------------------------------
 Center     Atomic      Atomic             Coordinates (Angstroms)
 Number     Number       Type             X           Y           Z
 ---------------------------------------------------------------------
      1         16           0       -0.151418   -0.474133    0.015603
      2          8           0        1.307425    0.242569   -0.043571
      3          8           0       -1.171837    0.559775   -0.017988
      4          1           0        1.337975    1.167374    0.242829
 ---------------------------------------------------------------------

 SCF Done:  E(UwB97XD) =  -549.220273130     A.U. after   15 cycles

 The electronic state is 2-A.
 Alpha  occ. eigenvalues --  -89.14884 -19.31330 -19.28132  -8.17620  -6.12564
 Alpha  occ. eigenvalues --   -6.12309  -6.11951  -1.22170  -1.14811  -0.80316
 Alpha  occ. eigenvalues --   -0.63206  -0.57037  -0.56383  -0.50216  -0.46955
 Alpha  occ. eigenvalues --   -0.42419  -0.30723
 Alpha virt. eigenvalues --    0.04816   0.06775   0.07727   0.09415   0.11939
 Alpha virt. eigenvalues --    0.13484   0.18809   0.22764   0.24584   0.25334
 Alpha virt. eigenvalues --    0.26600   0.28420   0.30054   0.32651   0.33027

  Beta  occ. eigenvalues --  -89.14499 -19.31089 -19.27251  -8.17277  -6.12337
  Beta  occ. eigenvalues --   -6.11743  -6.11075  -1.20961  -1.13434  -0.78110
  Beta  occ. eigenvalues --   -0.61792  -0.56085  -0.52944  -0.48290  -0.43343
  Beta  occ. eigenvalues --   -0.41248
  Beta virt. eigenvalues --   -0.03666   0.05311   0.07113   0.08165   0.10027
  Beta virt. eigenvalues --    0.12747   0.14363   0.19104   0.23015   0.24907
  Beta virt. eigenvalues --    0.25529   0.27152   0.28754   0.30390   0.32771

 Mulliken atomic charges:
              1
     1  S    0.504799
     2  O   -0.621234
     3  O   -0.376004
     4  H    0.492440
 Sum of Mulliken atomic charges =   0.00000

 Dipole moment (field-independent basis, Debye):
    X=              1.3613    Y=              0.1079    Z=              0.5248  Tot=              1.4630
 Quadrupole moment (field-independent basis, Debye-Ang):
   XX=            -26.1260   YY=            -21.0539   ZZ=            -23.6012
   XY=              3.8097   XZ=              0.7510   YZ=              0.7981

 Normal termination of Gaussian 09 at Wed Aug 20 23:00:02 2025.
